rutils 12x12x16 supercell

13824 atoms
2 atom types

0.000 55.116 xlo xhi
0.000 55.116 ylo yhi
0.000 47.344 zlo zhi

Masses

1 47.867
2 15.999

Atoms # charge

2 1 2.1960000000000002e+00 0.0000000000000000e+00 0.0000000000000000e+00 0.0000000000000000e+00 0 0 0
866 1 2.1960000000000002e+00 0.0000000000000000e+00 0.0000000000000000e+00 2.9590000000000001e+00 0 0 0
1730 1 2.1960000000000002e+00 0.0000000000000000e+00 0.0000000000000000e+00 5.9180000000000001e+00 0 0 0
2594 1 2.1960000000000002e+00 0.0000000000000000e+00 0.0000000000000000e+00 8.8770000000000007e+00 0 0 0
3458 1 2.1960000000000002e+00 0.0000000000000000e+00 0.0000000000000000e+00 1.1836000000000000e+01 0 0 0
4322 1 2.1960000000000002e+00 0.0000000000000000e+00 0.0000000000000000e+00 1.4795000000000000e+01 0 0 0
5186 1 2.1960000000000002e+00 0.0000000000000000e+00 0.0000000000000000e+00 1.7754000000000001e+01 0 0 0
6050 1 2.1960000000000002e+00 0.0000000000000000e+00 0.0000000000000000e+00 2.0713000000000001e+01 0 0 0
74 1 2.1960000000000002e+00 0.0000000000000000e+00 4.5930000000000000e+00 0.0000000000000000e+00 0 0 0
938 1 2.1960000000000002e+00 0.0000000000000000e+00 4.5930000000000000e+00 2.9590000000000001e+00 0 0 0
1802 1 2.1960000000000002e+00 0.0000000000000000e+00 4.5930000000000000e+00 5.9180000000000001e+00 0 0 0
2666 1 2.1960000000000002e+00 0.0000000000000000e+00 4.5930000000000000e+00 8.8770000000000007e+00 0 0 0
3530 1 2.1960000000000002e+00 0.0000000000000000e+00 4.5930000000000000e+00 1.1836000000000000e+01 0 0 0
4394 1 2.1960000000000002e+00 0.0000000000000000e+00 4.5930000000000000e+00 1.4795000000000000e+01 0 0 0
5258 1 2.1960000000000002e+00 0.0000000000000000e+00 4.5930000000000000e+00 1.7754000000000001e+01 0 0 0
6122 1 2.1960000000000002e+00 0.0000000000000000e+00 4.5930000000000000e+00 2.0713000000000001e+01 0 0 0
146 1 2.1960000000000002e+00 0.0000000000000000e+00 9.1859999999999999e+00 0.0000000000000000e+00 0 0 0
1010 1 2.1960000000000002e+00 0.0000000000000000e+00 9.1859999999999999e+00 2.9590000000000001e+00 0 0 0
1874 1 2.1960000000000002e+00 0.0000000000000000e+00 9.1859999999999999e+00 5.9180000000000001e+00 0 0 0
2738 1 2.1960000000000002e+00 0.0000000000000000e+00 9.1859999999999999e+00 8.8770000000000007e+00 0 0 0
3602 1 2.1960000000000002e+00 0.0000000000000000e+00 9.1859999999999999e+00 1.1836000000000000e+01 0 0 0
4466 1 2.1960000000000002e+00 0.0000000000000000e+00 9.1859999999999999e+00 1.4795000000000000e+01 0 0 0
5330 1 2.1960000000000002e+00 0.0000000000000000e+00 9.1859999999999999e+00 1.7754000000000001e+01 0 0 0
6194 1 2.1960000000000002e+00 0.0000000000000000e+00 9.1859999999999999e+00 2.0713000000000001e+01 0 0 0
8 1 2.1960000000000002e+00 4.5930000000000000e+00 0.0000000000000000e+00 0.0000000000000000e+00 0 0 0
872 1 2.1960000000000002e+00 4.5930000000000000e+00 0.0000000000000000e+00 2.9590000000000001e+00 0 0 0
1736 1 2.1960000000000002e+00 4.5930000000000000e+00 0.0000000000000000e+00 5.9180000000000001e+00 0 0 0
2600 1 2.1960000000000002e+00 4.5930000000000000e+00 0.0000000000000000e+00 8.8770000000000007e+00 0 0 0
3464 1 2.1960000000000002e+00 4.5930000000000000e+00 0.0000000000000000e+00 1.1836000000000000e+01 0 0 0
4328 1 2.1960000000000002e+00 4.5930000000000000e+00 0.0000000000000000e+00 1.4795000000000000e+01 0 0 0
5192 1 2.1960000000000002e+00 4.5930000000000000e+00 0.0000000000000000e+00 1.7754000000000001e+01 0 0 0
6056 1 2.1960000000000002e+00 4.5930000000000000e+00 0.0000000000000000e+00 2.0713000000000001e+01 0 0 0
80 1 2.1960000000000002e+00 4.5930000000000000e+00 4.5930000000000000e+00 0.0000000000000000e+00 0 0 0
944 1 2.1960000000000002e+00 4.5930000000000000e+00 4.5930000000000000e+00 2.9590000000000001e+00 0 0 0
1808 1 2.1960000000000002e+00 4.5930000000000000e+00 4.5930000000000000e+00 5.9180000000000001e+00 0 0 0
2672 1 2.1960000000000002e+00 4.5930000000000000e+00 4.5930000000000000e+00 8.8770000000000007e+00 0 0 0
3536 1 2.1960000000000002e+00 4.5930000000000000e+00 4.5930000000000000e+00 1.1836000000000000e+01 0 0 0
4400 1 2.1960000000000002e+00 4.5930000000000000e+00 4.5930000000000000e+00 1.4795000000000000e+01 0 0 0
5264 1 2.1960000000000002e+00 4.5930000000000000e+00 4.5930000000000000e+00 1.7754000000000001e+01 0 0 0
6128 1 2.1960000000000002e+00 4.5930000000000000e+00 4.5930000000000000e+00 2.0713000000000001e+01 0 0 0
152 1 2.1960000000000002e+00 4.5930000000000000e+00 9.1859999999999999e+00 0.0000000000000000e+00 0 0 0
1016 1 2.1960000000000002e+00 4.5930000000000000e+00 9.1859999999999999e+00 2.9590000000000001e+00 0 0 0
1880 1 2.1960000000000002e+00 4.5930000000000000e+00 9.1859999999999999e+00 5.9180000000000001e+00 0 0 0
2744 1 2.1960000000000002e+00 4.5930000000000000e+00 9.1859999999999999e+00 8.8770000000000007e+00 0 0 0
3608 1 2.1960000000000002e+00 4.5930000000000000e+00 9.1859999999999999e+00 1.1836000000000000e+01 0 0 0
4472 1 2.1960000000000002e+00 4.5930000000000000e+00 9.1859999999999999e+00 1.4795000000000000e+01 0 0 0
5336 1 2.1960000000000002e+00 4.5930000000000000e+00 9.1859999999999999e+00 1.7754000000000001e+01 0 0 0
6200 1 2.1960000000000002e+00 4.5930000000000000e+00 9.1859999999999999e+00 2.0713000000000001e+01 0 0 0
14 1 2.1960000000000002e+00 9.1859999999999999e+00 0.0000000000000000e+00 0.0000000000000000e+00 0 0 0
878 1 2.1960000000000002e+00 9.1859999999999999e+00 0.0000000000000000e+00 2.9590000000000001e+00 0 0 0
1742 1 2.1960000000000002e+00 9.1859999999999999e+00 0.0000000000000000e+00 5.9180000000000001e+00 0 0 0
2606 1 2.1960000000000002e+00 9.1859999999999999e+00 0.0000000000000000e+00 8.8770000000000007e+00 0 0 0
3470 1 2.1960000000000002e+00 9.1859999999999999e+00 0.0000000000000000e+00 1.1836000000000000e+01 0 0 0
4334 1 2.1960000000000002e+00 9.1859999999999999e+00 0.0000000000000000e+00 1.4795000000000000e+01 0 0 0
5198 1 2.1960000000000002e+00 9.1859999999999999e+00 0.0000000000000000e+00 1.7754000000000001e+01 0 0 0
6062 1 2.1960000000000002e+00 9.1859999999999999e+00 0.0000000000000000e+00 2.0713000000000001e+01 0 0 0
86 1 2.1960000000000002e+00 9.1859999999999999e+00 4.5930000000000000e+00 0.0000000000000000e+00 0 0 0
950 1 2.1960000000000002e+00 9.1859999999999999e+00 4.5930000000000000e+00 2.9590000000000001e+00 0 0 0
1814 1 2.1960000000000002e+00 9.1859999999999999e+00 4.5930000000000000e+00 5.9180000000000001e+00 0 0 0
2678 1 2.1960000000000002e+00 9.1859999999999999e+00 4.5930000000000000e+00 8.8770000000000007e+00 0 0 0
3542 1 2.1960000000000002e+00 9.1859999999999999e+00 4.5930000000000000e+00 1.1836000000000000e+01 0 0 0
4406 1 2.1960000000000002e+00 9.1859999999999999e+00 4.5930000000000000e+00 1.4795000000000000e+01 0 0 0
5270 1 2.1960000000000002e+00 9.1859999999999999e+00 4.5930000000000000e+00 1.7754000000000001e+01 0 0 0
6134 1 2.1960000000000002e+00 9.1859999999999999e+00 4.5930000000000000e+00 2.0713000000000001e+01 0 0 0
158 1 2.1960000000000002e+00 9.1859999999999999e+00 9.1859999999999999e+00 0.0000000000000000e+00 0 0 0
1022 1 2.1960000000000002e+00 9.1859999999999999e+00 9.1859999999999999e+00 2.9590000000000001e+00 0 0 0
1886 1 2.1960000000000002e+00 9.1859999999999999e+00 9.1859999999999999e+00 5.9180000000000001e+00 0 0 0
2750 1 2.1960000000000002e+00 9.1859999999999999e+00 9.1859999999999999e+00 8.8770000000000007e+00 0 0 0
3614 1 2.1960000000000002e+00 9.1859999999999999e+00 9.1859999999999999e+00 1.1836000000000000e+01 0 0 0
4478 1 2.1960000000000002e+00 9.1859999999999999e+00 9.1859999999999999e+00 1.4795000000000000e+01 0 0 0
5342 1 2.1960000000000002e+00 9.1859999999999999e+00 9.1859999999999999e+00 1.7754000000000001e+01 0 0 0
6206 1 2.1960000000000002e+00 9.1859999999999999e+00 9.1859999999999999e+00 2.0713000000000001e+01 0 0 0
20 1 2.1960000000000002e+00 1.3779000000000000e+01 0.0000000000000000e+00 0.0000000000000000e+00 0 0 0
884 1 2.1960000000000002e+00 1.3779000000000000e+01 0.0000000000000000e+00 2.9590000000000001e+00 0 0 0
1748 1 2.1960000000000002e+00 1.3779000000000000e+01 0.0000000000000000e+00 5.9180000000000001e+00 0 0 0
2612 1 2.1960000000000002e+00 1.3779000000000000e+01 0.0000000000000000e+00 8.8770000000000007e+00 0 0 0
3476 1 2.1960000000000002e+00 1.3779000000000000e+01 0.0000000000000000e+00 1.1836000000000000e+01 0 0 0
4340 1 2.1960000000000002e+00 1.3779000000000000e+01 0.0000000000000000e+00 1.4795000000000000e+01 0 0 0
5204 1 2.1960000000000002e+00 1.3779000000000000e+01 0.0000000000000000e+00 1.7754000000000001e+01 0 0 0
6068 1 2.1960000000000002e+00 1.3779000000000000e+01 0.0000000000000000e+00 2.0713000000000001e+01 0 0 0
92 1 2.1960000000000002e+00 1.3779000000000000e+01 4.5930000000000000e+00 0.0000000000000000e+00 0 0 0
956 1 2.1960000000000002e+00 1.3779000000000000e+01 4.5930000000000000e+00 2.9590000000000001e+00 0 0 0
1820 1 2.1960000000000002e+00 1.3779000000000000e+01 4.5930000000000000e+00 5.9180000000000001e+00 0 0 0
2684 1 2.1960000000000002e+00 1.3779000000000000e+01 4.5930000000000000e+00 8.8770000000000007e+00 0 0 0
3548 1 2.1960000000000002e+00 1.3779000000000000e+01 4.5930000000000000e+00 1.1836000000000000e+01 0 0 0
4412 1 2.1960000000000002e+00 1.3779000000000000e+01 4.5930000000000000e+00 1.4795000000000000e+01 0 0 0
5276 1 2.1960000000000002e+00 1.3779000000000000e+01 4.5930000000000000e+00 1.7754000000000001e+01 0 0 0
6140 1 2.1960000000000002e+00 1.3779000000000000e+01 4.5930000000000000e+00 2.0713000000000001e+01 0 0 0
164 1 2.1960000000000002e+00 1.3779000000000000e+01 9.1859999999999999e+00 0.0000000000000000e+00 0 0 0
1028 1 2.1960000000000002e+00 1.3779000000000000e+01 9.1859999999999999e+00 2.9590000000000001e+00 0 0 0
1892 1 2.1960000000000002e+00 1.3779000000000000e+01 9.1859999999999999e+00 5.9180000000000001e+00 0 0 0
2756 1 2.1960000000000002e+00 1.3779000000000000e+01 9.1859999999999999e+00 8.8770000000000007e+00 0 0 0
3620 1 2.1960000000000002e+00 1.3779000000000000e+01 9.1859999999999999e+00 1.1836000000000000e+01 0 0 0
4484 1 2.1960000000000002e+00 1.3779000000000000e+01 9.1859999999999999e+00 1.4795000000000000e+01 0 0 0
5348 1 2.1960000000000002e+00 1.3779000000000000e+01 9.1859999999999999e+00 1.7754000000000001e+01 0 0 0
6212 1 2.1960000000000002e+00 1.3779000000000000e+01 9.1859999999999999e+00 2.0713000000000001e+01 0 0 0
26 1 2.1960000000000002e+00 1.8372000000000000e+01 0.0000000000000000e+00 0.0000000000000000e+00 0 0 0
890 1 2.1960000000000002e+00 1.8372000000000000e+01 0.0000000000000000e+00 2.9590000000000001e+00 0 0 0
1754 1 2.1960000000000002e+00 1.8372000000000000e+01 0.0000000000000000e+00 5.9180000000000001e+00 0 0 0
2618 1 2.1960000000000002e+00 1.8372000000000000e+01 0.0000000000000000e+00 8.8770000000000007e+00 0 0 0
3482 1 2.1960000000000002e+00 1.8372000000000000e+01 0.0000000000000000e+00 1.1836000000000000e+01 0 0 0
4346 1 2.1960000000000002e+00 1.8372000000000000e+01 0.0000000000000000e+00 1.4795000000000000e+01 0 0 0
5210 1 2.1960000000000002e+00 1.8372000000000000e+01 0.0000000000000000e+00 1.7754000000000001e+01 0 0 0
6074 1 2.1960000000000002e+00 1.8372000000000000e+01 0.0000000000000000e+00 2.0713000000000001e+01 0 0 0
98 1 2.1960000000000002e+00 1.8372000000000000e+01 4.5930000000000000e+00 0.0000000000000000e+00 0 0 0
962 1 2.1960000000000002e+00 1.8372000000000000e+01 4.5930000000000000e+00 2.9590000000000001e+00 0 0 0
1826 1 2.1960000000000002e+00 1.8372000000000000e+01 4.5930000000000000e+00 5.9180000000000001e+00 0 0 0
2690 1 2.1960000000000002e+00 1.8372000000000000e+01 4.5930000000000000e+00 8.8770000000000007e+00 0 0 0
3554 1 2.1960000000000002e+00 1.8372000000000000e+01 4.5930000000000000e+00 1.1836000000000000e+01 0 0 0
4418 1 2.1960000000000002e+00 1.8372000000000000e+01 4.5930000000000000e+00 1.4795000000000000e+01 0 0 0
5282 1 2.1960000000000002e+00 1.8372000000000000e+01 4.5930000000000000e+00 1.7754000000000001e+01 0 0 0
6146 1 2.1960000000000002e+00 1.8372000000000000e+01 4.5930000000000000e+00 2.0713000000000001e+01 0 0 0
170 1 2.1960000000000002e+00 1.8372000000000000e+01 9.1859999999999999e+00 0.0000000000000000e+00 0 0 0
1034 1 2.1960000000000002e+00 1.8372000000000000e+01 9.1859999999999999e+00 2.9590000000000001e+00 0 0 0
1898 1 2.1960000000000002e+00 1.8372000000000000e+01 9.1859999999999999e+00 5.9180000000000001e+00 0 0 0
2762 1 2.1960000000000002e+00 1.8372000000000000e+01 9.1859999999999999e+00 8.8770000000000007e+00 0 0 0
3626 1 2.1960000000000002e+00 1.8372000000000000e+01 9.1859999999999999e+00 1.1836000000000000e+01 0 0 0
4490 1 2.1960000000000002e+00 1.8372000000000000e+01 9.1859999999999999e+00 1.4795000000000000e+01 0 0 0
5354 1 2.1960000000000002e+00 1.8372000000000000e+01 9.1859999999999999e+00 1.7754000000000001e+01 0 0 0
6218 1 2.1960000000000002e+00 1.8372000000000000e+01 9.1859999999999999e+00 2.0713000000000001e+01 0 0 0
32 1 2.1960000000000002e+00 2.2965000000000000e+01 0.0000000000000000e+00 0.0000000000000000e+00 0 0 0
896 1 2.1960000000000002e+00 2.2965000000000000e+01 0.0000000000000000e+00 2.9590000000000001e+00 0 0 0
1760 1 2.1960000000000002e+00 2.2965000000000000e+01 0.0000000000000000e+00 5.9180000000000001e+00 0 0 0
2624 1 2.1960000000000002e+00 2.2965000000000000e+01 0.0000000000000000e+00 8.8770000000000007e+00 0 0 0
3488 1 2.1960000000000002e+00 2.2965000000000000e+01 0.0000000000000000e+00 1.1836000000000000e+01 0 0 0
4352 1 2.1960000000000002e+00 2.2965000000000000e+01 0.0000000000000000e+00 1.4795000000000000e+01 0 0 0
5216 1 2.1960000000000002e+00 2.2965000000000000e+01 0.0000000000000000e+00 1.7754000000000001e+01 0 0 0
6080 1 2.1960000000000002e+00 2.2965000000000000e+01 0.0000000000000000e+00 2.0713000000000001e+01 0 0 0
104 1 2.1960000000000002e+00 2.2965000000000000e+01 4.5930000000000000e+00 0.0000000000000000e+00 0 0 0
968 1 2.1960000000000002e+00 2.2965000000000000e+01 4.5930000000000000e+00 2.9590000000000001e+00 0 0 0
1832 1 2.1960000000000002e+00 2.2965000000000000e+01 4.5930000000000000e+00 5.9180000000000001e+00 0 0 0
2696 1 2.1960000000000002e+00 2.2965000000000000e+01 4.5930000000000000e+00 8.8770000000000007e+00 0 0 0
3560 1 2.1960000000000002e+00 2.2965000000000000e+01 4.5930000000000000e+00 1.1836000000000000e+01 0 0 0
4424 1 2.1960000000000002e+00 2.2965000000000000e+01 4.5930000000000000e+00 1.4795000000000000e+01 0 0 0
5288 1 2.1960000000000002e+00 2.2965000000000000e+01 4.5930000000000000e+00 1.7754000000000001e+01 0 0 0
6152 1 2.1960000000000002e+00 2.2965000000000000e+01 4.5930000000000000e+00 2.0713000000000001e+01 0 0 0
176 1 2.1960000000000002e+00 2.2965000000000000e+01 9.1859999999999999e+00 0.0000000000000000e+00 0 0 0
1040 1 2.1960000000000002e+00 2.2965000000000000e+01 9.1859999999999999e+00 2.9590000000000001e+00 0 0 0
1904 1 2.1960000000000002e+00 2.2965000000000000e+01 9.1859999999999999e+00 5.9180000000000001e+00 0 0 0
2768 1 2.1960000000000002e+00 2.2965000000000000e+01 9.1859999999999999e+00 8.8770000000000007e+00 0 0 0
3632 1 2.1960000000000002e+00 2.2965000000000000e+01 9.1859999999999999e+00 1.1836000000000000e+01 0 0 0
4496 1 2.1960000000000002e+00 2.2965000000000000e+01 9.1859999999999999e+00 1.4795000000000000e+01 0 0 0
5360 1 2.1960000000000002e+00 2.2965000000000000e+01 9.1859999999999999e+00 1.7754000000000001e+01 0 0 0
6224 1 2.1960000000000002e+00 2.2965000000000000e+01 9.1859999999999999e+00 2.0713000000000001e+01 0 0 0
5 2 -1.0980000000000001e+00 1.3993033300000000e+00 1.3993033300000000e+00 0.0000000000000000e+00 0 0 0
869 2 -1.0980000000000001e+00 1.3993033300000000e+00 1.3993033300000000e+00 2.9590000000000001e+00 0 0 0
1733 2 -1.0980000000000001e+00 1.3993033300000000e+00 1.3993033300000000e+00 5.9180000000000001e+00 0 0 0
2597 2 -1.0980000000000001e+00 1.3993033300000000e+00 1.3993033300000000e+00 8.8770000000000007e+00 0 0 0
3461 2 -1.0980000000000001e+00 1.3993033300000000e+00 1.3993033300000000e+00 1.1836000000000000e+01 0 0 0
4325 2 -1.0980000000000001e+00 1.3993033300000000e+00 1.3993033300000000e+00 1.4795000000000000e+01 0 0 0
5189 2 -1.0980000000000001e+00 1.3993033300000000e+00 1.3993033300000000e+00 1.7754000000000001e+01 0 0 0
6053 2 -1.0980000000000001e+00 1.3993033300000000e+00 1.3993033300000000e+00 2.0713000000000001e+01 0 0 0
77 2 -1.0980000000000001e+00 1.3993033300000000e+00 5.9923033300000004e+00 0.0000000000000000e+00 0 0 0
941 2 -1.0980000000000001e+00 1.3993033300000000e+00 5.9923033300000004e+00 2.9590000000000001e+00 0 0 0
1805 2 -1.0980000000000001e+00 1.3993033300000000e+00 5.9923033300000004e+00 5.9180000000000001e+00 0 0 0
2669 2 -1.0980000000000001e+00 1.3993033300000000e+00 5.9923033300000004e+00 8.8770000000000007e+00 0 0 0
3533 2 -1.0980000000000001e+00 1.3993033300000000e+00 5.9923033300000004e+00 1.1836000000000000e+01 0 0 0
4397 2 -1.0980000000000001e+00 1.3993033300000000e+00 5.9923033300000004e+00 1.4795000000000000e+01 0 0 0
5261 2 -1.0980000000000001e+00 1.3993033300000000e+00 5.9923033300000004e+00 1.7754000000000001e+01 0 0 0
6125 2 -1.0980000000000001e+00 1.3993033300000000e+00 5.9923033300000004e+00 2.0713000000000001e+01 0 0 0
149 2 -1.0980000000000001e+00 1.3993033300000000e+00 1.0585303330000000e+01 0.0000000000000000e+00 0 0 0
1013 2 -1.0980000000000001e+00 1.3993033300000000e+00 1.0585303330000000e+01 2.9590000000000001e+00 0 0 0
1877 2 -1.0980000000000001e+00 1.3993033300000000e+00 1.0585303330000000e+01 5.9180000000000001e+00 0 0 0
2741 2 -1.0980000000000001e+00 1.3993033300000000e+00 1.0585303330000000e+01 8.8770000000000007e+00 0 0 0
3605 2 -1.0980000000000001e+00 1.3993033300000000e+00 1.0585303330000000e+01 1.1836000000000000e+01 0 0 0
4469 2 -1.0980000000000001e+00 1.3993033300000000e+00 1.0585303330000000e+01 1.4795000000000000e+01 0 0 0
5333 2 -1.0980000000000001e+00 1.3993033300000000e+00 1.0585303330000000e+01 1.7754000000000001e+01 0 0 0
6197 2 -1.0980000000000001e+00 1.3993033300000000e+00 1.0585303330000000e+01 2.0713000000000001e+01 0 0 0
11 2 -1.0980000000000001e+00 5.9923033300000004e+00 1.3993033300000000e+00 0.0000000000000000e+00 0 0 0
875 2 -1.0980000000000001e+00 5.9923033300000004e+00 1.3993033300000000e+00 2.9590000000000001e+00 0 0 0
1739 2 -1.0980000000000001e+00 5.9923033300000004e+00 1.3993033300000000e+00 5.9180000000000001e+00 0 0 0
2603 2 -1.0980000000000001e+00 5.9923033300000004e+00 1.3993033300000000e+00 8.8770000000000007e+00 0 0 0
3467 2 -1.0980000000000001e+00 5.9923033300000004e+00 1.3993033300000000e+00 1.1836000000000000e+01 0 0 0
4331 2 -1.0980000000000001e+00 5.9923033300000004e+00 1.3993033300000000e+00 1.4795000000000000e+01 0 0 0
5195 2 -1.0980000000000001e+00 5.9923033300000004e+00 1.3993033300000000e+00 1.7754000000000001e+01 0 0 0
6059 2 -1.0980000000000001e+00 5.9923033300000004e+00 1.3993033300000000e+00 2.0713000000000001e+01 0 0 0
83 2 -1.0980000000000001e+00 5.9923033300000004e+00 5.9923033300000004e+00 0.0000000000000000e+00 0 0 0
947 2 -1.0980000000000001e+00 5.9923033300000004e+00 5.9923033300000004e+00 2.9590000000000001e+00 0 0 0
1811 2 -1.0980000000000001e+00 5.9923033300000004e+00 5.9923033300000004e+00 5.9180000000000001e+00 0 0 0
2675 2 -1.0980000000000001e+00 5.9923033300000004e+00 5.9923033300000004e+00 8.8770000000000007e+00 0 0 0
3539 2 -1.0980000000000001e+00 5.9923033300000004e+00 5.9923033300000004e+00 1.1836000000000000e+01 0 0 0
4403 2 -1.0980000000000001e+00 5.9923033300000004e+00 5.9923033300000004e+00 1.4795000000000000e+01 0 0 0
5267 2 -1.0980000000000001e+00 5.9923033300000004e+00 5.9923033300000004e+00 1.7754000000000001e+01 0 0 0
6131 2 -1.0980000000000001e+00 5.9923033300000004e+00 5.9923033300000004e+00 2.0713000000000001e+01 0 0 0
155 2 -1.0980000000000001e+00 5.9923033300000004e+00 1.0585303330000000e+01 0.0000000000000000e+00 0 0 0
1019 2 -1.0980000000000001e+00 5.9923033300000004e+00 1.0585303330000000e+01 2.9590000000000001e+00 0 0 0
1883 2 -1.0980000000000001e+00 5.9923033300000004e+00 1.0585303330000000e+01 5.9180000000000001e+00 0 0 0
2747 2 -1.0980000000000001e+00 5.9923033300000004e+00 1.0585303330000000e+01 8.8770000000000007e+00 0 0 0
3611 2 -1.0980000000000001e+00 5.9923033300000004e+00 1.0585303330000000e+01 1.1836000000000000e+01 0 0 0
4475 2 -1.0980000000000001e+00 5.9923033300000004e+00 1.0585303330000000e+01 1.4795000000000000e+01 0 0 0
5339 2 -1.0980000000000001e+00 5.9923033300000004e+00 1.0585303330000000e+01 1.7754000000000001e+01 0 0 0
6203 2 -1.0980000000000001e+00 5.9923033300000004e+00 1.0585303330000000e+01 2.0713000000000001e+01 0 0 0
17 2 -1.0980000000000001e+00 1.0585303330000000e+01 1.3993033300000000e+00 0.0000000000000000e+00 0 0 0
881 2 -1.0980000000000001e+00 1.0585303330000000e+01 1.3993033300000000e+00 2.9590000000000001e+00 0 0 0
1745 2 -1.0980000000000001e+00 1.0585303330000000e+01 1.3993033300000000e+00 5.9180000000000001e+00 0 0 0
2609 2 -1.0980000000000001e+00 1.0585303330000000e+01 1.3993033300000000e+00 8.8770000000000007e+00 0 0 0
3473 2 -1.0980000000000001e+00 1.0585303330000000e+01 1.3993033300000000e+00 1.1836000000000000e+01 0 0 0
4337 2 -1.0980000000000001e+00 1.0585303330000000e+01 1.3993033300000000e+00 1.4795000000000000e+01 0 0 0
5201 2 -1.0980000000000001e+00 1.0585303330000000e+01 1.3993033300000000e+00 1.7754000000000001e+01 0 0 0
6065 2 -1.0980000000000001e+00 1.0585303330000000e+01 1.3993033300000000e+00 2.0713000000000001e+01 0 0 0
89 2 -1.0980000000000001e+00 1.0585303330000000e+01 5.9923033300000004e+00 0.0000000000000000e+00 0 0 0
953 2 -1.0980000000000001e+00 1.0585303330000000e+01 5.9923033300000004e+00 2.9590000000000001e+00 0 0 0
1817 2 -1.0980000000000001e+00 1.0585303330000000e+01 5.9923033300000004e+00 5.9180000000000001e+00 0 0 0
2681 2 -1.0980000000000001e+00 1.0585303330000000e+01 5.9923033300000004e+00 8.8770000000000007e+00 0 0 0
3545 2 -1.0980000000000001e+00 1.0585303330000000e+01 5.9923033300000004e+00 1.1836000000000000e+01 0 0 0
4409 2 -1.0980000000000001e+00 1.0585303330000000e+01 5.9923033300000004e+00 1.4795000000000000e+01 0 0 0
5273 2 -1.0980000000000001e+00 1.0585303330000000e+01 5.9923033300000004e+00 1.7754000000000001e+01 0 0 0
6137 2 -1.0980000000000001e+00 1.0585303330000000e+01 5.9923033300000004e+00 2.0713000000000001e+01 0 0 0
161 2 -1.0980000000000001e+00 1.0585303330000000e+01 1.0585303330000000e+01 0.0000000000000000e+00 0 0 0
1025 2 -1.0980000000000001e+00 1.0585303330000000e+01 1.0585303330000000e+01 2.9590000000000001e+00 0 0 0
1889 2 -1.0980000000000001e+00 1.0585303330000000e+01 1.0585303330000000e+01 5.9180000000000001e+00 0 0 0
2753 2 -1.0980000000000001e+00 1.0585303330000000e+01 1.0585303330000000e+01 8.8770000000000007e+00 0 0 0
3617 2 -1.0980000000000001e+00 1.0585303330000000e+01 1.0585303330000000e+01 1.1836000000000000e+01 0 0 0
4481 2 -1.0980000000000001e+00 1.0585303330000000e+01 1.0585303330000000e+01 1.4795000000000000e+01 0 0 0
5345 2 -1.0980000000000001e+00 1.0585303330000000e+01 1.0585303330000000e+01 1.7754000000000001e+01 0 0 0
6209 2 -1.0980000000000001e+00 1.0585303330000000e+01 1.0585303330000000e+01 2.0713000000000001e+01 0 0 0
23 2 -1.0980000000000001e+00 1.5178303330000000e+01 1.3993033300000000e+00 0.0000000000000000e+00 0 0 0
887 2 -1.0980000000000001e+00 1.5178303330000000e+01 1.3993033300000000e+00 2.9590000000000001e+00 0 0 0
1751 2 -1.0980000000000001e+00 1.5178303330000000e+01 1.3993033300000000e+00 5.9180000000000001e+00 0 0 0
2615 2 -1.0980000000000001e+00 1.5178303330000000e+01 1.3993033300000000e+00 8.8770000000000007e+00 0 0 0
3479 2 -1.0980000000000001e+00 1.5178303330000000e+01 1.3993033300000000e+00 1.1836000000000000e+01 0 0 0
4343 2 -1.0980000000000001e+00 1.5178303330000000e+01 1.3993033300000000e+00 1.4795000000000000e+01 0 0 0
5207 2 -1.0980000000000001e+00 1.5178303330000000e+01 1.3993033300000000e+00 1.7754000000000001e+01 0 0 0
6071 2 -1.0980000000000001e+00 1.5178303330000000e+01 1.3993033300000000e+00 2.0713000000000001e+01 0 0 0
95 2 -1.0980000000000001e+00 1.5178303330000000e+01 5.9923033300000004e+00 0.0000000000000000e+00 0 0 0
959 2 -1.0980000000000001e+00 1.5178303330000000e+01 5.9923033300000004e+00 2.9590000000000001e+00 0 0 0
1823 2 -1.0980000000000001e+00 1.5178303330000000e+01 5.9923033300000004e+00 5.9180000000000001e+00 0 0 0
2687 2 -1.0980000000000001e+00 1.5178303330000000e+01 5.9923033300000004e+00 8.8770000000000007e+00 0 0 0
3551 2 -1.0980000000000001e+00 1.5178303330000000e+01 5.9923033300000004e+00 1.1836000000000000e+01 0 0 0
4415 2 -1.0980000000000001e+00 1.5178303330000000e+01 5.9923033300000004e+00 1.4795000000000000e+01 0 0 0
5279 2 -1.0980000000000001e+00 1.5178303330000000e+01 5.9923033300000004e+00 1.7754000000000001e+01 0 0 0
6143 2 -1.0980000000000001e+00 1.5178303330000000e+01 5.9923033300000004e+00 2.0713000000000001e+01 0 0 0
167 2 -1.0980000000000001e+00 1.5178303330000000e+01 1.0585303330000000e+01 0.0000000000000000e+00 0 0 0
1031 2 -1.0980000000000001e+00 1.5178303330000000e+01 1.0585303330000000e+01 2.9590000000000001e+00 0 0 0
1895 2 -1.0980000000000001e+00 1.5178303330000000e+01 1.0585303330000000e+01 5.9180000000000001e+00 0 0 0
2759 2 -1.0980000000000001e+00 1.5178303330000000e+01 1.0585303330000000e+01 8.8770000000000007e+00 0 0 0
3623 2 -1.0980000000000001e+00 1.5178303330000000e+01 1.0585303330000000e+01 1.1836000000000000e+01 0 0 0
4487 2 -1.0980000000000001e+00 1.5178303330000000e+01 1.0585303330000000e+01 1.4795000000000000e+01 0 0 0
5351 2 -1.0980000000000001e+00 1.5178303330000000e+01 1.0585303330000000e+01 1.7754000000000001e+01 0 0 0
6215 2 -1.0980000000000001e+00 1.5178303330000000e+01 1.0585303330000000e+01 2.0713000000000001e+01 0 0 0
29 2 -1.0980000000000001e+00 1.9771303329999999e+01 1.3993033300000000e+00 0.0000000000000000e+00 0 0 0
893 2 -1.0980000000000001e+00 1.9771303329999999e+01 1.3993033300000000e+00 2.9590000000000001e+00 0 0 0
1757 2 -1.0980000000000001e+00 1.9771303329999999e+01 1.3993033300000000e+00 5.9180000000000001e+00 0 0 0
2621 2 -1.0980000000000001e+00 1.9771303329999999e+01 1.3993033300000000e+00 8.8770000000000007e+00 0 0 0
3485 2 -1.0980000000000001e+00 1.9771303329999999e+01 1.3993033300000000e+00 1.1836000000000000e+01 0 0 0
4349 2 -1.0980000000000001e+00 1.9771303329999999e+01 1.3993033300000000e+00 1.4795000000000000e+01 0 0 0
5213 2 -1.0980000000000001e+00 1.9771303329999999e+01 1.3993033300000000e+00 1.7754000000000001e+01 0 0 0
6077 2 -1.0980000000000001e+00 1.9771303329999999e+01 1.3993033300000000e+00 2.0713000000000001e+01 0 0 0
101 2 -1.0980000000000001e+00 1.9771303329999999e+01 5.9923033300000004e+00 0.0000000000000000e+00 0 0 0
965 2 -1.0980000000000001e+00 1.9771303329999999e+01 5.9923033300000004e+00 2.9590000000000001e+00 0 0 0
1829 2 -1.0980000000000001e+00 1.9771303329999999e+01 5.9923033300000004e+00 5.9180000000000001e+00 0 0 0
2693 2 -1.0980000000000001e+00 1.9771303329999999e+01 5.9923033300000004e+00 8.8770000000000007e+00 0 0 0
3557 2 -1.0980000000000001e+00 1.9771303329999999e+01 5.9923033300000004e+00 1.1836000000000000e+01 0 0 0
4421 2 -1.0980000000000001e+00 1.9771303329999999e+01 5.9923033300000004e+00 1.4795000000000000e+01 0 0 0
5285 2 -1.0980000000000001e+00 1.9771303329999999e+01 5.9923033300000004e+00 1.7754000000000001e+01 0 0 0
6149 2 -1.0980000000000001e+00 1.9771303329999999e+01 5.9923033300000004e+00 2.0713000000000001e+01 0 0 0
173 2 -1.0980000000000001e+00 1.9771303329999999e+01 1.0585303330000000e+01 0.0000000000000000e+00 0 0 0
1037 2 -1.0980000000000001e+00 1.9771303329999999e+01 1.0585303330000000e+01 2.9590000000000001e+00 0 0 0
1901 2 -1.0980000000000001e+00 1.9771303329999999e+01 1.0585303330000000e+01 5.9180000000000001e+00 0 0 0
2765 2 -1.0980000000000001e+00 1.9771303329999999e+01 1.0585303330000000e+01 8.8770000000000007e+00 0 0 0
3629 2 -1.0980000000000001e+00 1.9771303329999999e+01 1.0585303330000000e+01 1.1836000000000000e+01 0 0 0
4493 2 -1.0980000000000001e+00 1.9771303329999999e+01 1.0585303330000000e+01 1.4795000000000000e+01 0 0 0
5357 2 -1.0980000000000001e+00 1.9771303329999999e+01 1.0585303330000000e+01 1.7754000000000001e+01 0 0 0
6221 2 -1.0980000000000001e+00 1.9771303329999999e+01 1.0585303330000000e+01 2.0713000000000001e+01 0 0 0
35 2 -1.0980000000000001e+00 2.4364303329999998e+01 1.3993033300000000e+00 0.0000000000000000e+00 0 0 0
899 2 -1.0980000000000001e+00 2.4364303329999998e+01 1.3993033300000000e+00 2.9590000000000001e+00 0 0 0
1763 2 -1.0980000000000001e+00 2.4364303329999998e+01 1.3993033300000000e+00 5.9180000000000001e+00 0 0 0
2627 2 -1.0980000000000001e+00 2.4364303329999998e+01 1.3993033300000000e+00 8.8770000000000007e+00 0 0 0
3491 2 -1.0980000000000001e+00 2.4364303329999998e+01 1.3993033300000000e+00 1.1836000000000000e+01 0 0 0
4355 2 -1.0980000000000001e+00 2.4364303329999998e+01 1.3993033300000000e+00 1.4795000000000000e+01 0 0 0
5219 2 -1.0980000000000001e+00 2.4364303329999998e+01 1.3993033300000000e+00 1.7754000000000001e+01 0 0 0
6083 2 -1.0980000000000001e+00 2.4364303329999998e+01 1.3993033300000000e+00 2.0713000000000001e+01 0 0 0
107 2 -1.0980000000000001e+00 2.4364303329999998e+01 5.9923033300000004e+00 0.0000000000000000e+00 0 0 0
971 2 -1.0980000000000001e+00 2.4364303329999998e+01 5.9923033300000004e+00 2.9590000000000001e+00 0 0 0
1835 2 -1.0980000000000001e+00 2.4364303329999998e+01 5.9923033300000004e+00 5.9180000000000001e+00 0 0 0
2699 2 -1.0980000000000001e+00 2.4364303329999998e+01 5.9923033300000004e+00 8.8770000000000007e+00 0 0 0
3563 2 -1.0980000000000001e+00 2.4364303329999998e+01 5.9923033300000004e+00 1.1836000000000000e+01 0 0 0
4427 2 -1.0980000000000001e+00 2.4364303329999998e+01 5.9923033300000004e+00 1.4795000000000000e+01 0 0 0
5291 2 -1.0980000000000001e+00 2.4364303329999998e+01 5.9923033300000004e+00 1.7754000000000001e+01 0 0 0
6155 2 -1.0980000000000001e+00 2.4364303329999998e+01 5.9923033300000004e+00 2.0713000000000001e+01 0 0 0
179 2 -1.0980000000000001e+00 2.4364303329999998e+01 1.0585303330000000e+01 0.0000000000000000e+00 0 0 0
1043 2 -1.0980000000000001e+00 2.4364303329999998e+01 1.0585303330000000e+01 2.9590000000000001e+00 0 0 0
1907 2 -1.0980000000000001e+00 2.4364303329999998e+01 1.0585303330000000e+01 5.9180000000000001e+00 0 0 0