<?xml version="1.0" encoding="ISO-8859-1"?>
<modeling>
 <generator>
  <i name="program" type="string">vasp </i>
  <i name="version" type="string">5.4.4.18Apr17-6-g9f103f2a35  </i>
  <i name="subversion" type="string">(build Sep 15 2021 12:59:37) complex            parallel </i>
  <i name="platform" type="string">LinuxGNU </i>
  <i name="date" type="string">2022 10 04 </i>
  <i name="time" type="string">11:18:34 </i>
 </generator>
 <incar>
  <i type="string" name="SYSTEM"> si_2x2x2</i>
  <i type="string" name="PREC">low</i>
  <i type="string" name="ALGO">  VeryFast</i>
  <i type="int" name="NELM">   150</i>
  <i name="EDIFF">      0.00000100</i>
  <i type="int" name="NSW">   100</i>
  <i type="int" name="ISIF">     3</i>
  <i type="int" name="ISYM">     0</i>
  <i name="ENCUT">    250.00000000</i>
  <i name="POTIM">      3.00000000</i>
  <i name="TEBEG">    600.00000000</i>
  <i name="TEEND">    600.00000000</i>
  <i name="SMASS">      1.00000000</i>
  <i type="string" name="LREAL"> Auto</i>
  <i type="logical" name="LPLANE"> T  </i>
  <i type="int" name="ISMEAR">     0</i>
  <i name="SIGMA">      0.10000000</i>
  <i type="int" name="NWRITE">     2</i>
  <i type="logical" name="LWAVE"> T  </i>
  <i type="int" name="MDALGO">     2</i>
  <v type="int" name="KPOINT_BSE">    -1     0     0     0</v>
  <i type="int" name="NELM">   150</i>
  <i type="string" name="GGA"> PS</i>
 </incar>
 <structure name="primitive_cell" >
  <crystal>
   <varray name="basis" >
    <v>      10.86180000       0.00000000       0.00000000 </v>
    <v>       0.00000000      10.86180000       0.00000000 </v>
    <v>       0.00000000       0.00000000      10.86180000 </v>
   </varray>
   <i name="volume">   1281.46103541 </i>
   <varray name="rec_basis" >
    <v>       0.09206577       0.00000000       0.00000000 </v>
    <v>       0.00000000       0.09206577       0.00000000 </v>
    <v>       0.00000000       0.00000000       0.09206577 </v>
   </varray>
  </crystal>
  <varray name="positions" >
   <v>       0.00000000       0.00000000       0.00000000 </v>
   <v>      -0.12500000       0.12500000      -0.12500000 </v>
   <v>      -0.12500000      -0.12500000       0.12500000 </v>
   <v>       0.12500000       0.12500000       0.12500000 </v>
   <v>       0.12500000      -0.12500000      -0.12500000 </v>
   <v>       0.00000000       0.25000000       0.25000000 </v>
   <v>       0.00000000      -0.25000000       0.25000000 </v>
   <v>       0.00000000       0.25000000      -0.25000000 </v>
   <v>       0.00000000      -0.25000000      -0.25000000 </v>
   <v>       0.25000000       0.00000000       0.25000000 </v>
   <v>      -0.25000000       0.00000000       0.25000000 </v>
   <v>       0.25000000       0.00000000      -0.25000000 </v>
   <v>      -0.25000000       0.00000000      -0.25000000 </v>
   <v>       0.25000000       0.25000000       0.00000000 </v>
   <v>      -0.25000000       0.25000000       0.00000000 </v>
   <v>       0.25000000      -0.25000000       0.00000000 </v>
   <v>      -0.25000000      -0.25000000       0.00000000 </v>
   <v>      -0.12500000       0.12500000       0.37500000 </v>
   <v>       0.37500000       0.12500000      -0.12500000 </v>
   <v>      -0.12500000      -0.37500000      -0.12500000 </v>
   <v>      -0.12500000       0.37500000       0.12500000 </v>
   <v>       0.37500000      -0.12500000       0.12500000 </v>
   <v>      -0.12500000      -0.12500000      -0.37500000 </v>
   <v>      -0.37500000       0.12500000       0.12500000 </v>
   <v>       0.12500000      -0.37500000       0.12500000 </v>
   <v>       0.12500000       0.12500000      -0.37500000 </v>
   <v>       0.12500000      -0.12500000       0.37500000 </v>
   <v>       0.12500000       0.37500000      -0.12500000 </v>
   <v>      -0.37500000      -0.12500000      -0.12500000 </v>
   <v>      -0.50000000       0.00000000       0.00000000 </v>
   <v>       0.00000000      -0.50000000       0.00000000 </v>
   <v>       0.00000000       0.00000000      -0.50000000 </v>
   <v>       0.37500000       0.12500000       0.37500000 </v>
   <v>      -0.12500000      -0.37500000       0.37500000 </v>
   <v>       0.37500000      -0.37500000      -0.12500000 </v>
   <v>       0.37500000       0.37500000       0.12500000 </v>
   <v>      -0.12500000       0.37500000      -0.37500000 </v>
   <v>       0.37500000      -0.12500000      -0.37500000 </v>
   <v>      -0.37500000      -0.37500000       0.12500000 </v>
   <v>      -0.37500000       0.12500000      -0.37500000 </v>
   <v>       0.12500000      -0.37500000      -0.37500000 </v>
   <v>       0.12500000       0.37500000       0.37500000 </v>
   <v>      -0.37500000      -0.12500000       0.37500000 </v>
   <v>      -0.37500000       0.37500000      -0.12500000 </v>
   <v>      -0.50000000       0.25000000       0.25000000 </v>
   <v>      -0.50000000      -0.25000000       0.25000000 </v>
   <v>      -0.50000000       0.25000000      -0.25000000 </v>
   <v>      -0.50000000      -0.25000000      -0.25000000 </v>
   <v>       0.25000000      -0.50000000       0.25000000 </v>
   <v>      -0.25000000      -0.50000000       0.25000000 </v>
   <v>       0.25000000      -0.50000000      -0.25000000 </v>
   <v>      -0.25000000      -0.50000000      -0.25000000 </v>
   <v>       0.25000000       0.25000000      -0.50000000 </v>
   <v>      -0.25000000       0.25000000      -0.50000000 </v>
   <v>       0.25000000      -0.25000000      -0.50000000 </v>
   <v>      -0.25000000      -0.25000000      -0.50000000 </v>
   <v>       0.37500000      -0.37500000       0.37500000 </v>
   <v>       0.37500000       0.37500000      -0.37500000 </v>
   <v>      -0.37500000      -0.37500000      -0.37500000 </v>
   <v>      -0.37500000       0.37500000       0.37500000 </v>
   <v>      -0.50000000      -0.50000000       0.00000000 </v>
   <v>      -0.50000000       0.00000000      -0.50000000 </v>
   <v>       0.00000000      -0.50000000      -0.50000000 </v>
   <v>      -0.50000000      -0.50000000      -0.50000000 </v>
  </varray>
 </structure>
 <varray name="primitive_index" >
  <v type="int" >        1 </v>
  <v type="int" >       14 </v>
  <v type="int" >       28 </v>
  <v type="int" >       41 </v>
  <v type="int" >       63 </v>
  <v type="int" >       17 </v>
  <v type="int" >       19 </v>
  <v type="int" >       21 </v>
  <v type="int" >       23 </v>
  <v type="int" >       33 </v>
  <v type="int" >       34 </v>
  <v type="int" >       37 </v>
  <v type="int" >       38 </v>
  <v type="int" >       49 </v>
  <v type="int" >       50 </v>
  <v type="int" >       51 </v>
  <v type="int" >       52 </v>
  <v type="int" >       10 </v>
  <v type="int" >       13 </v>
  <v type="int" >       16 </v>
  <v type="int" >       26 </v>
  <v type="int" >       27 </v>
  <v type="int" >       32 </v>
  <v type="int" >       42 </v>
  <v type="int" >       43 </v>
  <v type="int" >       45 </v>
  <v type="int" >       59 </v>
  <v type="int" >       61 </v>
  <v type="int" >       64 </v>
  <v type="int" >        2 </v>
  <v type="int" >        3 </v>
  <v type="int" >        5 </v>
  <v type="int" >        9 </v>
  <v type="int" >       12 </v>
  <v type="int" >       15 </v>
  <v type="int" >       25 </v>
  <v type="int" >       30 </v>
  <v type="int" >       31 </v>
  <v type="int" >       44 </v>
  <v type="int" >       46 </v>
  <v type="int" >       47 </v>
  <v type="int" >       57 </v>
  <v type="int" >       60 </v>
  <v type="int" >       62 </v>
  <v type="int" >       18 </v>
  <v type="int" >       20 </v>
  <v type="int" >       22 </v>
  <v type="int" >       24 </v>
  <v type="int" >       35 </v>
  <v type="int" >       36 </v>
  <v type="int" >       39 </v>
  <v type="int" >       40 </v>
  <v type="int" >       53 </v>
  <v type="int" >       54 </v>
  <v type="int" >       55 </v>
  <v type="int" >       56 </v>
  <v type="int" >       11 </v>
  <v type="int" >       29 </v>
  <v type="int" >       48 </v>
  <v type="int" >       58 </v>
  <v type="int" >        4 </v>
  <v type="int" >        6 </v>
  <v type="int" >        7 </v>
  <v type="int" >        8 </v>
 </varray>
 <kpoints>
  <generation param="Gamma">
   <v type="int" name="divisions">       1        1        1 </v>
   <v name="usershift">      0.00000000       0.00000000       0.00000000 </v>
   <v name="genvec1">      1.00000000       0.00000000       0.00000000 </v>
   <v name="genvec2">      0.00000000       1.00000000       0.00000000 </v>
   <v name="genvec3">      0.00000000       0.00000000       1.00000000 </v>
   <v name="shift">      0.00000000       0.00000000       0.00000000 </v>
  </generation>
  <varray name="kpointlist" >
   <v>       0.00000000       0.00000000       0.00000000 </v>
  </varray>
  <varray name="weights" >
   <v>       1.00000000 </v>
  </varray>
 </kpoints>
 <parameters>
  <separator name="general" >
   <i type="string" name="SYSTEM">si_2x2x2</i>
   <i type="logical" name="LCOMPAT"> F  </i>
  </separator>
  <separator name="electronic" >
   <i type="string" name="PREC">low</i>
   <i name="ENMAX">    250.00000000</i>
   <i name="ENAUG">    322.06900000</i>
   <i name="EDIFF">      0.00000100</i>
   <i type="int" name="IALGO">    48</i>
   <i type="int" name="IWAVPR">    12</i>
   <i type="int" name="NBANDS">   161</i>
   <i name="NELECT">    256.00000000</i>
   <i type="int" name="TURBO">     0</i>
   <i type="int" name="IRESTART">     0</i>
   <i type="int" name="NREBOOT">     0</i>
   <i type="int" name="NMIN">     0</i>
   <i name="EREF">      0.00000000</i>
   <separator name="electronic smearing" >
    <i type="int" name="ISMEAR">     0</i>
    <i name="SIGMA">      0.10000000</i>
    <i name="KSPACING">      0.50000000</i>
    <i type="logical" name="KGAMMA"> T  </i>
   </separator>
   <separator name="electronic projectors" >
    <i type="logical" name="LREAL"> T  </i>
    <v name="ROPT">     -0.01000000</v>
    <i type="int" name="LMAXPAW">  -100</i>
    <i type="int" name="LMAXMIX">     2</i>
    <i type="logical" name="NLSPLINE"> F  </i>
   </separator>
   <separator name="electronic startup" >
    <i type="int" name="ISTART">     1</i>
    <i type="int" name="ICHARG">     0</i>
    <i type="int" name="INIWAV">     1</i>
   </separator>
   <separator name="electronic spin" >
    <i type="int" name="ISPIN">     1</i>
    <i type="logical" name="LNONCOLLINEAR"> F  </i>
    <v name="MAGMOM">      1.00000000      1.00000000      1.00000000      1.00000000      1.00000000      1.00000000      1.00000000      1.00000000      1.00000000      1.00000000      1.00000000      1.00000000      1.00000000      1.00000000      1.00000000      1.00000000      1.00000000      1.00000000      1.00000000      1.00000000
      1.00000000      1.00000000      1.00000000      1.00000000      1.00000000      1.00000000      1.00000000      1.00000000      1.00000000      1.00000000      1.00000000      1.00000000      1.00000000      1.00000000      1.00000000      1.00000000      1.00000000      1.00000000      1.00000000      1.00000000
      1.00000000      1.00000000      1.00000000      1.00000000      1.00000000      1.00000000      1.00000000      1.00000000      1.00000000      1.00000000      1.00000000      1.00000000      1.00000000      1.00000000      1.00000000      1.00000000      1.00000000      1.00000000      1.00000000      1.00000000
      1.00000000      1.00000000      1.00000000      1.00000000</v>
    <i name="NUPDOWN">     -1.00000000</i>
    <i type="logical" name="LSORBIT"> F  </i>
    <v name="SAXIS">      0.00000000      0.00000000      1.00000000</v>
    <i type="logical" name="LSPIRAL"> F  </i>
    <v name="QSPIRAL">      0.00000000      0.00000000      0.00000000</v>
    <i type="logical" name="LZEROZ"> F  </i>
   </separator>
   <separator name="electronic exchange-correlation" >
    <i type="logical" name="LASPH"> F  </i>
    <i type="logical" name="LMETAGGA"> F  </i>
   </separator>
   <separator name="electronic convergence" >
    <i type="int" name="NELM">   150</i>
    <i type="int" name="NELMDL">     0</i>
    <i type="int" name="NELMIN">     2</i>
    <i name="ENINI">    250.00000000</i>
    <separator name="electronic convergence detail" >
     <i type="logical" name="LDIAG"> T  </i>
     <i type="logical" name="LSUBROT"> F  </i>
     <i name="WEIMIN">      0.00100000</i>
     <i name="EBREAK">      0.00000000</i>
     <i name="DEPER">      0.30000000</i>
     <i type="int" name="NRMM">     4</i>
     <i name="TIME">      0.40000000</i>
    </separator>
   </separator>
   <separator name="electronic mixer" >
    <i name="AMIX">      0.40000000</i>
    <i name="BMIX">      1.00000000</i>
    <i name="AMIN">      0.10000000</i>
    <i name="AMIX_MAG">      1.60000000</i>
    <i name="BMIX_MAG">      1.00000000</i>
    <separator name="electronic mixer details" >
     <i type="int" name="IMIX">     4</i>
     <i type="logical" name="MIXFIRST"> F  </i>
     <i type="int" name="MAXMIX">   -45</i>
     <i name="WC">    100.00000000</i>
     <i type="int" name="INIMIX">     1</i>
     <i type="int" name="MIXPRE">     1</i>
     <i type="int" name="MREMOVE">     5</i>
    </separator>
   </separator>
   <separator name="electronic dipolcorrection" >
    <i type="logical" name="LDIPOL"> F  </i>
    <i type="logical" name="LMONO"> F  </i>
    <i type="int" name="IDIPOL">     0</i>
    <i name="EPSILON">      1.00000000</i>
    <v name="DIPOL">   -100.00000000   -100.00000000   -100.00000000</v>
    <i name="EFIELD">      0.00000000</i>
   </separator>
  </separator>
  <separator name="grids" >
   <i type="int" name="NGX">    42</i>
   <i type="int" name="NGY">    42</i>
   <i type="int" name="NGZ">    42</i>
   <i type="int" name="NGXF">    48</i>
   <i type="int" name="NGYF">    48</i>
   <i type="int" name="NGZF">    48</i>
   <i type="logical" name="ADDGRID"> F  </i>
  </separator>
  <separator name="ionic" >
   <i type="int" name="NSW">   100</i>
   <i type="int" name="IBRION">     0</i>
   <i type="int" name="MDALGO">     2</i>
   <i type="int" name="ISIF">     3</i>
   <i name="PSTRESS">      0.00000000</i>
   <i name="EDIFFG">      0.00001000</i>
   <i type="int" name="NFREE">     0</i>
   <i name="POTIM">      3.00000000</i>
   <i name="SMASS">      1.00000000</i>
   <i name="SCALEE">      1.00000000</i>
  </separator>
  <separator name="ionic md" >
   <i name="TEBEG">    600.00000000</i>
   <i name="TEEND">    600.00000000</i>
   <i type="int" name="NBLOCK">     1</i>
   <i type="int" name="KBLOCK">   100</i>
   <i type="int" name="NPACO">   256</i>
   <i name="APACO">     16.00000000</i>
  </separator>
  <separator name="symmetry" >
   <i type="int" name="ISYM">     0</i>
   <i name="SYMPREC">      0.00001000</i>
  </separator>
  <separator name="dos" >
   <i type="int" name="LORBIT">     0</i>
   <v name="RWIGS">     -1.00000000</v>
   <i type="int" name="NEDOS">   301</i>
   <i name="EMIN">     10.00000000</i>
   <i name="EMAX">    -10.00000000</i>
   <i name="EFERMI">      0.00000000</i>
  </separator>
  <separator name="writing" >
   <i type="int" name="NWRITE">     2</i>
   <i type="logical" name="LWAVE"> T  </i>
   <i type="logical" name="LDOWNSAMPLE"> F  </i>
   <i type="logical" name="LCHARG"> T  </i>
   <i type="logical" name="LPARD"> F  </i>
   <i type="logical" name="LVTOT"> F  </i>
   <i type="logical" name="LVHAR"> F  </i>
   <i type="logical" name="LELF"> F  </i>
   <i type="logical" name="LOPTICS"> F  </i>
   <v name="STM">      0.00000000      0.00000000      0.00000000      0.00000000      0.00000000      0.00000000      0.00000000</v>
  </separator>
  <separator name="performance" >
   <i type="int" name="NPAR">     1</i>
   <i type="int" name="NSIM">     4</i>
   <i type="int" name="NBLK">    -1</i>
   <i type="logical" name="LPLANE"> T  </i>
   <i type="logical" name="LSCALAPACK"> T  </i>
   <i type="logical" name="LSCAAWARE"> F  </i>
   <i type="logical" name="LSCALU"> F  </i>
   <i type="logical" name="LASYNC"> F  </i>
   <i type="logical" name="LORBITALREAL"> F  </i>
  </separator>
  <separator name="miscellaneous" >
   <i type="int" name="IDIOT">     3</i>
   <i type="int" name="ISPECIAL">     0</i>
   <i type="logical" name="LMUSIC"> F  </i>
   <v name="POMASS">     28.08500000</v>
   <v name="DARWINR">      0.00000000</v>
   <v name="DARWINV">      1.00000000</v>
   <i type="logical" name="LCORR"> T  </i>
  </separator>
  <i type="logical" name="GGA_COMPAT"> T  </i>
  <i type="logical" name="LBERRY"> F  </i>
  <i type="int" name="ICORELEVEL">     0</i>
  <i type="logical" name="LDAU"> F  </i>
  <i type="int" name="I_CONSTRAINED_M">     0</i>
  <separator name="electronic exchange-correlation" >
   <i type="string" name="GGA">PS</i>
   <i type="int" name="VOSKOWN">     0</i>
   <i type="logical" name="LHFCALC"> F  </i>
   <i type="string" name="PRECFOCK"></i>
   <i type="logical" name="LSYMGRAD"> F  </i>
   <i type="logical" name="LHFONE"> F  </i>
   <i type="logical" name="LRHFCALC"> F  </i>
   <i type="logical" name="LTHOMAS"> F  </i>
   <i type="logical" name="LMODELHF"> F  </i>
   <i name="ENCUT4O">     -1.00000000</i>
   <i type="int" name="EXXOEP">     0</i>
   <i type="int" name="FOURORBIT">     0</i>
   <i name="AEXX">      0.00000000</i>
   <i name="HFALPHA">      0.00000000</i>
   <i name="MCALPHA">      0.00000000</i>
   <i name="ALDAX">      1.00000000</i>
   <i name="AGGAX">      1.00000000</i>
   <i name="ALDAC">      1.00000000</i>
   <i name="AGGAC">      1.00000000</i>
   <i type="int" name="NKREDX">     1</i>
   <i type="int" name="NKREDY">     1</i>
   <i type="int" name="NKREDZ">     1</i>
   <i type="logical" name="SHIFTRED"> F  </i>
   <i type="logical" name="ODDONLY"> F  </i>
   <i type="logical" name="EVENONLY"> F  </i>
   <i type="int" name="LMAXFOCK">     0</i>
   <i type="int" name="NMAXFOCKAE">     0</i>
   <i type="logical" name="LFOCKAEDFT"> F  </i>
   <i name="HFSCREEN">      0.00000000</i>
   <i name="HFSCREENC">      0.00000000</i>
   <i type="int" name="NBANDSGWLOW">     0</i>
  </separator>
  <separator name="vdW DFT" >
   <i type="logical" name="LUSE_VDW"> F  </i>
   <i name="Zab_VDW">     -0.84910000</i>
   <i name="PARAM1">      0.12340000</i>
   <i name="PARAM2">      1.00000000</i>
   <i name="PARAM3">      0.00000000</i>
  </separator>
  <separator name="model GW" >
   <i type="int" name="MODEL_GW">     0</i>
   <i name="MODEL_EPS0">     12.01369721</i>
   <i name="MODEL_ALPHA">      1.00000000</i>
  </separator>
  <separator name="linear response parameters" >
   <i type="logical" name="LEPSILON"> F  </i>
   <i type="logical" name="LRPA"> F  </i>
   <i type="logical" name="LNABLA"> F  </i>
   <i type="logical" name="LVEL"> F  </i>
   <i type="int" name="KINTER">     0</i>
   <i name="CSHIFT">      0.10000000</i>
   <i name="OMEGAMAX">     -1.00000000</i>
   <i name="DEG_THRESHOLD">      0.00200000</i>
   <i name="RTIME">     -0.10000000</i>
   <i name="WPLASMAI">      0.00000000</i>
   <v name="DFIELD">      0.00000000      0.00000000      0.00000000</v>
   <v name="WPLASMA">      0.00000000      0.00000000      0.00000000      0.00000000      0.00000000      0.00000000      0.00000000      0.00000000      0.00000000</v>
  </separator>
  <separator name="orbital magnetization" >
   <i type="logical" name="NUCIND"> F  </i>
   <v name="MAGPOS">      0.00000000      0.00000000      0.00000000</v>
   <i type="logical" name="LNICSALL"> T  </i>
   <i type="logical" name="ORBITALMAG"> F  </i>
   <i type="logical" name="LMAGBLOCH"> F  </i>
   <i type="logical" name="LCHIMAG"> F  </i>
   <i type="logical" name="LGAUGE"> T  </i>
   <i type="int" name="MAGATOM">     0</i>
   <v name="MAGDIPOL">      0.00000000      0.00000000      0.00000000</v>
   <v name="AVECCONST">      0.00000000      0.00000000      0.00000000</v>
  </separator>
  <separator name="response functions" >
   <i type="logical" name="LADDER"> F  </i>
   <i type="logical" name="LRPAFORCE"> F  </i>
   <i type="logical" name="LFXC"> F  </i>
   <i type="logical" name="LHARTREE"> T  </i>
   <i type="int" name="IBSE">     0</i>
   <v type="int" name="KPOINT">    -1     0     0     0</v>
   <i type="logical" name="LTCTE"> F  </i>
   <i type="logical" name="LTETE"> F  </i>
   <i type="logical" name="LTRIPLET"> F  </i>
   <i type="logical" name="LFXCEPS"> F  </i>
   <i type="logical" name="LFXHEG"> F  </i>
   <i type="int" name="NATURALO">     2</i>
   <i type="logical" name="L2ORDER"> F  </i>
   <i type="logical" name="LMP2LT"> F  </i>
   <i type="logical" name="LUSEW"> F  </i>
   <i name="ENCUTGW">     -2.00000000</i>
   <i name="ENCUTGWSOFT">     -2.00000000</i>
   <i name="ENCUTLF">     -1.00000000</i>
   <i type="int" name="LMAXMP2">    -1</i>
   <i name="SCISSOR">      0.00000000</i>
   <i type="int" name="NOMEGA">     0</i>
   <i type="int" name="NOMEGAR">     0</i>
   <i type="int" name="NBANDSGW">    -1</i>
   <i type="int" name="NBANDSO">    -1</i>
   <i type="int" name="NBANDSV">    -1</i>
   <i type="int" name="NELM">   150</i>
   <i type="int" name="NELMHF">     1</i>
   <i type="int" name="DIM">     3</i>
   <i type="int" name="ANTIRES">     0</i>
   <i name="OMEGAMAX">    -30.00000000</i>
   <i name="OMEGAMIN">    -30.00000000</i>
   <i name="OMEGATL">   -200.00000000</i>
   <i type="int" name="OMEGAGRID">   140</i>
   <i name="CSHIFT">     -0.10000000</i>
   <i type="logical" name="SELFENERGY"> F  </i>
   <i type="logical" name="LSPECTRAL"> F  </i>
   <i type="logical" name="LSPECTRALGW"> F  </i>
   <i type="logical" name="LSINGLES"> F  </i>
   <i type="logical" name="LFERMIGW"> F  </i>
   <i type="logical" name="ODDONLYGW"> F  </i>
   <i type="logical" name="EVENONLYGW"> F  </i>
   <i type="int" name="NKREDLFX">     1</i>
   <i type="int" name="NKREDLFY">     1</i>
   <i type="int" name="NKREDLFZ">     1</i>
   <i type="int" name="MAXMEM">  2800</i>
   <i type="int" name="TELESCOPE">     0</i>
   <i type="int" name="TAUPAR">     1</i>
   <i type="int" name="OMEGAPAR">    -1</i>
   <i name="LAMBDA">      1.00000000</i>
  </separator>
  <separator name="External order field" >
   <i name="OFIELD_KAPPA">      0.00000000</i>
   <v name="OFIELD_K">      0.00000000      0.00000000      0.00000000</v>
   <i name="OFIELD_Q6_NEAR">      0.00000000</i>
   <i name="OFIELD_Q6_FAR">      0.00000000</i>
   <i name="OFIELD_A">      0.00000000</i>
  </separator>
 </parameters>
 <atominfo>
  <atoms>      64 </atoms>
  <types>       1 </types>
  <array name="atoms" >
   <dimension dim="1">ion</dimension>
   <field type="string">element</field>
   <field type="int">atomtype</field>
   <set>
    <rc><c>Si</c><c>   1</c></rc>
    <rc><c>Si</c><c>   1</c></rc>
    <rc><c>Si</c><c>   1</c></rc>
    <rc><c>Si</c><c>   1</c></rc>
    <rc><c>Si</c><c>   1</c></rc>
    <rc><c>Si</c><c>   1</c></rc>
    <rc><c>Si</c><c>   1</c></rc>
    <rc><c>Si</c><c>   1</c></rc>
    <rc><c>Si</c><c>   1</c></rc>
    <rc><c>Si</c><c>   1</c></rc>
    <rc><c>Si</c><c>   1</c></rc>
    <rc><c>Si</c><c>   1</c></rc>
    <rc><c>Si</c><c>   1</c></rc>
    <rc><c>Si</c><c>   1</c></rc>
    <rc><c>Si</c><c>   1</c></rc>
    <rc><c>Si</c><c>   1</c></rc>
    <rc><c>Si</c><c>   1</c></rc>
    <rc><c>Si</c><c>   1</c></rc>
    <rc><c>Si</c><c>   1</c></rc>
    <rc><c>Si</c><c>   1</c></rc>
    <rc><c>Si</c><c>   1</c></rc>
    <rc><c>Si</c><c>   1</c></rc>
    <rc><c>Si</c><c>   1</c></rc>
    <rc><c>Si</c><c>   1</c></rc>
    <rc><c>Si</c><c>   1</c></rc>
    <rc><c>Si</c><c>   1</c></rc>
    <rc><c>Si</c><c>   1</c></rc>
    <rc><c>Si</c><c>   1</c></rc>
    <rc><c>Si</c><c>   1</c></rc>
    <rc><c>Si</c><c>   1</c></rc>
    <rc><c>Si</c><c>   1</c></rc>
    <rc><c>Si</c><c>   1</c></rc>
    <rc><c>Si</c><c>   1</c></rc>
    <rc><c>Si</c><c>   1</c></rc>
    <rc><c>Si</c><c>   1</c></rc>
    <rc><c>Si</c><c>   1</c></rc>
    <rc><c>Si</c><c>   1</c></rc>
    <rc><c>Si</c><c>   1</c></rc>
    <rc><c>Si</c><c>   1</c></rc>
    <rc><c>Si</c><c>   1</c></rc>
    <rc><c>Si</c><c>   1</c></rc>
    <rc><c>Si</c><c>   1</c></rc>
    <rc><c>Si</c><c>   1</c></rc>
    <rc><c>Si</c><c>   1</c></rc>
    <rc><c>Si</c><c>   1</c></rc>
    <rc><c>Si</c><c>   1</c></rc>
    <rc><c>Si</c><c>   1</c></rc>
    <rc><c>Si</c><c>   1</c></rc>
    <rc><c>Si</c><c>   1</c></rc>
    <rc><c>Si</c><c>   1</c></rc>
    <rc><c>Si</c><c>   1</c></rc>
    <rc><c>Si</c><c>   1</c></rc>
    <rc><c>Si</c><c>   1</c></rc>
    <rc><c>Si</c><c>   1</c></rc>
    <rc><c>Si</c><c>   1</c></rc>
    <rc><c>Si</c><c>   1</c></rc>
    <rc><c>Si</c><c>   1</c></rc>
    <rc><c>Si</c><c>   1</c></rc>
    <rc><c>Si</c><c>   1</c></rc>
    <rc><c>Si</c><c>   1</c></rc>
    <rc><c>Si</c><c>   1</c></rc>
    <rc><c>Si</c><c>   1</c></rc>
    <rc><c>Si</c><c>   1</c></rc>
    <rc><c>Si</c><c>   1</c></rc>
   </set>
  </array>
  <array name="atomtypes" >
   <dimension dim="1">type</dimension>
   <field type="int">atomspertype</field>
   <field type="string">element</field>
   <field>mass</field>
   <field>valence</field>
   <field type="string">pseudopotential</field>
   <set>
    <rc><c>  64</c><c>Si</c><c>     28.08500000</c><c>      4.00000000</c><c>  PAW_PBE Si 05Jan2001                  </c></rc>
   </set>
  </array>
 </atominfo>
 <structure name="initialpos" >
  <crystal>
   <varray name="basis" >
    <v>      10.86180000       0.00000000       0.00000000 </v>
    <v>       0.00000000      10.86180000       0.00000000 </v>
    <v>       0.00000000       0.00000000      10.86180000 </v>
   </varray>
   <i name="volume">   1281.46103541 </i>
   <varray name="rec_basis" >
    <v>       0.09206577       0.00000000       0.00000000 </v>
    <v>       0.00000000       0.09206577       0.00000000 </v>
    <v>       0.00000000       0.00000000       0.09206577 </v>
   </varray>
  </crystal>
  <varray name="positions" >
   <v>       0.00000000       0.00000000       0.00000000 </v>
   <v>       0.50000000       0.00000000       0.00000000 </v>
   <v>       0.00000000       0.50000000       0.00000000 </v>
   <v>       0.50000000       0.50000000       0.00000000 </v>
   <v>       0.00000000       0.00000000       0.50000000 </v>
   <v>       0.50000000       0.00000000       0.50000000 </v>
   <v>       0.00000000       0.50000000       0.50000000 </v>
   <v>       0.50000000       0.50000000       0.50000000 </v>
   <v>       0.37500000       0.12500000       0.37500000 </v>
   <v>       0.87500000       0.12500000       0.37500000 </v>
   <v>       0.37500000       0.62500000       0.37500000 </v>
   <v>       0.87500000       0.62500000       0.37500000 </v>
   <v>       0.37500000       0.12500000       0.87500000 </v>
   <v>       0.87500000       0.12500000       0.87500000 </v>
   <v>       0.37500000       0.62500000       0.87500000 </v>
   <v>       0.87500000       0.62500000       0.87500000 </v>
   <v>       0.00000000       0.25000000       0.25000000 </v>
   <v>       0.50000000       0.25000000       0.25000000 </v>
   <v>       0.00000000       0.75000000       0.25000000 </v>
   <v>       0.50000000       0.75000000       0.25000000 </v>
   <v>       0.00000000       0.25000000       0.75000000 </v>
   <v>       0.50000000       0.25000000       0.75000000 </v>
   <v>       0.00000000       0.75000000       0.75000000 </v>
   <v>       0.50000000       0.75000000       0.75000000 </v>
   <v>       0.37500000       0.37500000       0.12500000 </v>
   <v>       0.87500000       0.37500000       0.12500000 </v>
   <v>       0.37500000       0.87500000       0.12500000 </v>
   <v>       0.87500000       0.87500000       0.12500000 </v>
   <v>       0.37500000       0.37500000       0.62500000 </v>
   <v>       0.87500000       0.37500000       0.62500000 </v>
   <v>       0.37500000       0.87500000       0.62500000 </v>
   <v>       0.87500000       0.87500000       0.62500000 </v>
   <v>       0.25000000       0.00000000       0.25000000 </v>
   <v>       0.75000000       0.00000000       0.25000000 </v>
   <v>       0.25000000       0.50000000       0.25000000 </v>
   <v>       0.75000000       0.50000000       0.25000000 </v>
   <v>       0.25000000       0.00000000       0.75000000 </v>
   <v>       0.75000000       0.00000000       0.75000000 </v>
   <v>       0.25000000       0.50000000       0.75000000 </v>
   <v>       0.75000000       0.50000000       0.75000000 </v>
   <v>       0.12500000       0.12500000       0.12500000 </v>
   <v>       0.62500000       0.12500000       0.12500000 </v>
   <v>       0.12500000       0.62500000       0.12500000 </v>
   <v>       0.62500000       0.62500000       0.12500000 </v>
   <v>       0.12500000       0.12500000       0.62500000 </v>
   <v>       0.62500000       0.12500000       0.62500000 </v>
   <v>       0.12500000       0.62500000       0.62500000 </v>
   <v>       0.62500000       0.62500000       0.62500000 </v>
   <v>       0.25000000       0.25000000       0.00000000 </v>
   <v>       0.75000000       0.25000000       0.00000000 </v>
   <v>       0.25000000       0.75000000       0.00000000 </v>
   <v>       0.75000000       0.75000000       0.00000000 </v>
   <v>       0.25000000       0.25000000       0.50000000 </v>
   <v>       0.75000000       0.25000000       0.50000000 </v>
   <v>       0.25000000       0.75000000       0.50000000 </v>
   <v>       0.75000000       0.75000000       0.50000000 </v>
   <v>       0.12500000       0.37500000       0.37500000 </v>
   <v>       0.62500000       0.37500000       0.37500000 </v>
   <v>       0.12500000       0.87500000       0.37500000 </v>
   <v>       0.62500000       0.87500000       0.37500000 </v>
   <v>       0.12500000       0.37500000       0.87500000 </v>
   <v>       0.62500000       0.37500000       0.87500000 </v>
   <v>       0.12500000       0.87500000       0.87500000 </v>
   <v>       0.62500000       0.87500000       0.87500000 </v>
  </varray>
  <varray name="velocities" >
   <v>      -0.00071364      -0.00097458      -0.00154148 </v>
   <v>       0.00019564      -0.00139831       0.00013968 </v>
   <v>      -0.00022702       0.00026279       0.00214517 </v>
   <v>      -0.00072396      -0.00053217      -0.00033077 </v>
   <v>       0.00027583       0.00051897       0.00023394 </v>
   <v>      -0.00271181      -0.00017786      -0.00149074 </v>
   <v>      -0.00104073       0.00156873      -0.00115020 </v>
   <v>      -0.00086552      -0.00052437       0.00051766 </v>
   <v>       0.00232524      -0.00002579       0.00070687 </v>
   <v>       0.00103684      -0.00208540       0.00152340 </v>
   <v>       0.00017340       0.00058063       0.00060454 </v>
   <v>      -0.00160002       0.00102476       0.00040749 </v>
   <v>       0.00032393       0.00221827      -0.00046336 </v>
   <v>       0.00256442      -0.00206562       0.00099812 </v>
   <v>       0.00012740      -0.00065329      -0.00001508 </v>
   <v>       0.00145206       0.00195582       0.00188385 </v>
   <v>       0.00121531       0.00020395      -0.00322637 </v>
   <v>       0.00014229       0.00034142      -0.00102128 </v>
   <v>       0.00050574       0.00047447      -0.00110596 </v>
   <v>      -0.00088566       0.00041732      -0.00052985 </v>
   <v>      -0.00008834       0.00063081      -0.00042524 </v>
   <v>      -0.00097205       0.00115728      -0.00001684 </v>
   <v>      -0.00114711       0.00278979       0.00032405 </v>
   <v>       0.00049310      -0.00033333      -0.00035891 </v>
   <v>      -0.00020329      -0.00051389      -0.00051578 </v>
   <v>       0.00067308      -0.00154017       0.00100023 </v>
   <v>      -0.00078943      -0.00013696       0.00319112 </v>
   <v>      -0.00129289      -0.00123206       0.00024568 </v>
   <v>       0.00087949      -0.00076820      -0.00095226 </v>
   <v>       0.00242103       0.00141627      -0.00041470 </v>
   <v>       0.00170089       0.00006286      -0.00041662 </v>
   <v>      -0.00027156      -0.00123336       0.00028245 </v>
   <v>      -0.00078956      -0.00023786      -0.00113584 </v>
   <v>      -0.00092032      -0.00062697       0.00068768 </v>
   <v>      -0.00079557      -0.00033977       0.00052241 </v>
   <v>       0.00056975       0.00045380      -0.00149521 </v>
   <v>       0.00003103      -0.00137394       0.00145237 </v>
   <v>      -0.00021778       0.00038976      -0.00141340 </v>
   <v>      -0.00020319      -0.00065812       0.00129049 </v>
   <v>       0.00018968      -0.00110160      -0.00167545 </v>
   <v>       0.00115957       0.00146815       0.00083051 </v>
   <v>       0.00003105      -0.00053924       0.00087384 </v>
   <v>      -0.00081715       0.00131304      -0.00253375 </v>
   <v>      -0.00042244      -0.00010111      -0.00261611 </v>
   <v>      -0.00045185      -0.00167917       0.00139769 </v>
   <v>       0.00042185      -0.00231028      -0.00069712 </v>
   <v>       0.00067549       0.00273862      -0.00073599 </v>
   <v>      -0.00056228      -0.00054936       0.00093246 </v>
   <v>      -0.00044333      -0.00126708       0.00117086 </v>
   <v>      -0.00175670       0.00041897      -0.00036088 </v>
   <v>       0.00130528       0.00011348      -0.00213384 </v>
   <v>      -0.00193480       0.00027534       0.00222937 </v>
   <v>      -0.00087078       0.00064616       0.00053128 </v>
   <v>       0.00056798       0.00003555       0.00272325 </v>
   <v>      -0.00017106      -0.00001790      -0.00015152 </v>
   <v>       0.00196326      -0.00151505       0.00102394 </v>
   <v>      -0.00023250       0.00010463       0.00166881 </v>
   <v>       0.00000784      -0.00017506      -0.00028779 </v>
   <v>      -0.00095165       0.00059127       0.00014338 </v>
   <v>       0.00167746       0.00086961       0.00040187 </v>
   <v>       0.00050807       0.00097016      -0.00065586 </v>
   <v>      -0.00069328       0.00002405      -0.00143284 </v>
   <v>      -0.00194832      -0.00005524      -0.00036532 </v>
   <v>       0.00210159       0.00070638      -0.00041808 </v>
  </varray>
 </structure>
 <calculation>
  <scstep>
   <time name="diag">    0.19    0.19</time>
   <time name="diis">    0.46    0.47</time>
   <time name="orth">    0.04    0.04</time>
   <time name="total">    0.78    0.78</time>
   <energy>
    <i name="alphaZ">    107.59920118 </i>
    <i name="ewald">  -7312.82194087 </i>
    <i name="hartreedc">   -479.40745572 </i>
    <i name="XCdc">   -537.86136498 </i>
    <i name="pawpsdc">  60512.69055474 </i>
    <i name="pawaedc"> -59412.81213425 </i>
    <i name="eentropy">     -0.14316242 </i>
    <i name="bandstr">    173.95332842 </i>
    <i name="atom">   6564.54007760 </i>
    <i name="e_fr_energy">   -384.26289630 </i>
    <i name="e_wo_entrp">   -384.11973388 </i>
    <i name="e_0_energy">   -384.19131509 </i>
   </energy>
  </scstep>
  <scstep>
   <time name="diag">    0.16    0.16</time>
   <time name="diis">    0.42    0.42</time>
   <time name="orth">    0.04    0.04</time>
   <time name="total">    0.71    0.71</time>
   <energy>
    <i name="e_fr_energy">   -364.05016925 </i>
    <i name="e_wo_entrp">   -364.04968334 </i>
    <i name="e_0_energy">   -364.04992629 </i>
   </energy>
  </scstep>
  <scstep>
   <time name="diag">    0.17    0.17</time>
   <time name="diis">    0.42    0.42</time>
   <time name="orth">    0.04    0.04</time>
   <time name="total">    0.71    0.71</time>
   <energy>
    <i name="e_fr_energy">   -360.65363747 </i>
    <i name="e_wo_entrp">   -360.65338730 </i>
    <i name="e_0_energy">   -360.65351238 </i>
   </energy>
  </scstep>
  <scstep>
   <time name="diag">    0.17    0.17</time>
   <time name="diis">    0.42    0.42</time>
   <time name="orth">    0.04    0.04</time>
   <time name="total">    0.70    0.70</time>
   <energy>
    <i name="e_fr_energy">   -359.73776688 </i>
    <i name="e_wo_entrp">   -359.73761041 </i>
    <i name="e_0_energy">   -359.73768864 </i>
   </energy>
  </scstep>
  <scstep>
   <time name="diag">    0.16    0.16</time>
   <time name="diis">    0.42    0.42</time>
   <time name="orth">    0.04    0.04</time>
   <time name="total">    0.70    0.70</time>
   <energy>
    <i name="e_fr_energy">   -359.73181768 </i>
    <i name="e_wo_entrp">   -359.73164956 </i>
    <i name="e_0_energy">   -359.73173362 </i>
   </energy>
  </scstep>
  <scstep>
   <time name="diag">    0.16    0.16</time>
   <time name="diis">    0.42    0.42</time>
   <time name="orth">    0.04    0.04</time>
   <time name="total">    0.70    0.70</time>
   <energy>
    <i name="e_fr_energy">   -359.71964932 </i>
    <i name="e_wo_entrp">   -359.71948033 </i>
    <i name="e_0_energy">   -359.71956483 </i>
   </energy>
  </scstep>
  <scstep>
   <time name="diag">    0.16    0.16</time>
   <time name="diis">    0.43    0.43</time>
   <time name="orth">    0.04    0.04</time>
   <time name="total">    0.71    0.71</time>
   <energy>
    <i name="e_fr_energy">   -359.71658138 </i>
    <i name="e_wo_entrp">   -359.71641316 </i>
    <i name="e_0_energy">   -359.71649727 </i>
   </energy>
  </scstep>
  <scstep>
   <time name="diag">    0.16    0.16</time>
   <time name="diis">    0.42    0.42</time>
   <time name="orth">    0.04    0.04</time>
   <time name="total">    0.70    0.70</time>
   <energy>
    <i name="e_fr_energy">   -359.71628320 </i>
    <i name="e_wo_entrp">   -359.71611519 </i>
    <i name="e_0_energy">   -359.71619919 </i>
   </energy>
  </scstep>
  <scstep>
   <time name="diag">    0.16    0.17</time>
   <time name="diis">    0.42    0.42</time>
   <time name="orth">    0.04    0.04</time>
   <time name="total">    0.70    0.70</time>
   <energy>
    <i name="e_fr_energy">   -359.71629007 </i>
    <i name="e_wo_entrp">   -359.71612241 </i>
    <i name="e_0_energy">   -359.71620624 </i>
   </energy>
  </scstep>
  <scstep>
   <time name="diag">    0.16    0.16</time>
   <time name="diis">    0.40    0.40</time>
   <time name="orth">    0.04    0.04</time>
   <time name="total">    0.68    0.68</time>
   <energy>
    <i name="e_fr_energy">   -359.71628580 </i>
    <i name="e_wo_entrp">   -359.71611811 </i>
    <i name="e_0_energy">   -359.71620196 </i>
   </energy>
  </scstep>
  <scstep>
   <time name="diag">    0.16    0.16</time>
   <time name="diis">    0.42    0.42</time>
   <time name="orth">    0.06    0.06</time>
   <time name="total">    0.67    0.67</time>
   <energy>
    <i name="alphaZ">    107.59920118 </i>
    <i name="ewald">  -7312.82194087 </i>
    <i name="hartreedc">   -479.53659974 </i>
    <i name="XCdc">   -537.37623706 </i>
    <i name="pawpsdc">  33656.80570518 </i>
    <i name="pawaedc"> -32557.83811331 </i>
    <i name="eentropy">     -0.00016765 </i>
    <i name="bandstr">    198.91178909 </i>
    <i name="atom">   6564.54007760 </i>
    <i name="e_fr_energy">   -359.71628559 </i>
    <i name="e_wo_entrp">   -359.71611794 </i>
    <i name="e_0_energy">   -359.71620176 </i>
   </energy>
  </scstep>
  <structure>
   <crystal>
    <varray name="basis" >
     <v>      10.86180000       0.00000000       0.00000000 </v>
     <v>       0.00000000      10.86180000       0.00000000 </v>
     <v>       0.00000000       0.00000000      10.86180000 </v>
    </varray>
    <i name="volume">   1281.46103541 </i>
    <varray name="rec_basis" >
     <v>       0.09206577       0.00000000       0.00000000 </v>
     <v>       0.00000000       0.09206577       0.00000000 </v>
     <v>       0.00000000       0.00000000       0.09206577 </v>
    </varray>
   </crystal>
   <varray name="positions" >
    <v>       0.00000000       0.00000000       0.00000000 </v>
    <v>       0.50000000       0.00000000       0.00000000 </v>
    <v>       0.00000000       0.50000000       0.00000000 </v>
    <v>       0.50000000       0.50000000       0.00000000 </v>
    <v>       0.00000000       0.00000000       0.50000000 </v>
    <v>       0.50000000       0.00000000       0.50000000 </v>
    <v>       0.00000000       0.50000000       0.50000000 </v>
    <v>       0.50000000       0.50000000       0.50000000 </v>
    <v>       0.37500000       0.12500000       0.37500000 </v>
    <v>       0.87500000       0.12500000       0.37500000 </v>
    <v>       0.37500000       0.62500000       0.37500000 </v>
    <v>       0.87500000       0.62500000       0.37500000 </v>
    <v>       0.37500000       0.12500000       0.87500000 </v>
    <v>       0.87500000       0.12500000       0.87500000 </v>
    <v>       0.37500000       0.62500000       0.87500000 </v>
    <v>       0.87500000       0.62500000       0.87500000 </v>
    <v>       0.00000000       0.25000000       0.25000000 </v>
    <v>       0.50000000       0.25000000       0.25000000 </v>
    <v>       0.00000000       0.75000000       0.25000000 </v>
    <v>       0.50000000       0.75000000       0.25000000 </v>
    <v>       0.00000000       0.25000000       0.75000000 </v>
    <v>       0.50000000       0.25000000       0.75000000 </v>
    <v>       0.00000000       0.75000000       0.75000000 </v>
    <v>       0.50000000       0.75000000       0.75000000 </v>
    <v>       0.37500000       0.37500000       0.12500000 </v>
    <v>       0.87500000       0.37500000       0.12500000 </v>
    <v>       0.37500000       0.87500000       0.12500000 </v>
    <v>       0.87500000       0.87500000       0.12500000 </v>
    <v>       0.37500000       0.37500000       0.62500000 </v>
    <v>       0.87500000       0.37500000       0.62500000 </v>
    <v>       0.37500000       0.87500000       0.62500000 </v>
    <v>       0.87500000       0.87500000       0.62500000 </v>
    <v>       0.25000000       0.00000000       0.25000000 </v>
    <v>       0.75000000       0.00000000       0.25000000 </v>
    <v>       0.25000000       0.50000000       0.25000000 </v>
    <v>       0.75000000       0.50000000       0.25000000 </v>
    <v>       0.25000000       0.00000000       0.75000000 </v>
    <v>       0.75000000       0.00000000       0.75000000 </v>
    <v>       0.25000000       0.50000000       0.75000000 </v>
    <v>       0.75000000       0.50000000       0.75000000 </v>
    <v>       0.12500000       0.12500000       0.12500000 </v>
    <v>       0.62500000       0.12500000       0.12500000 </v>
    <v>       0.12500000       0.62500000       0.12500000 </v>
    <v>       0.62500000       0.62500000       0.12500000 </v>
    <v>       0.12500000       0.12500000       0.62500000 </v>
    <v>       0.62500000       0.12500000       0.62500000 </v>
    <v>       0.12500000       0.62500000       0.62500000 </v>
    <v>       0.62500000       0.62500000       0.62500000 </v>
    <v>       0.25000000       0.25000000       0.00000000 </v>
    <v>       0.75000000       0.25000000       0.00000000 </v>
    <v>       0.25000000       0.75000000       0.00000000 </v>
    <v>       0.75000000       0.75000000       0.00000000 </v>
    <v>       0.25000000       0.25000000       0.50000000 </v>
    <v>       0.75000000       0.25000000       0.50000000 </v>
    <v>       0.25000000       0.75000000       0.50000000 </v>
    <v>       0.75000000       0.75000000       0.50000000 </v>
    <v>       0.12500000       0.37500000       0.37500000 </v>
    <v>       0.62500000       0.37500000       0.37500000 </v>
    <v>       0.12500000       0.87500000       0.37500000 </v>
    <v>       0.62500000       0.87500000       0.37500000 </v>
    <v>       0.12500000       0.37500000       0.87500000 </v>
    <v>       0.62500000       0.37500000       0.87500000 </v>
    <v>       0.12500000       0.87500000       0.87500000 </v>
    <v>       0.62500000       0.87500000       0.87500000 </v>
   </varray>
  </structure>
  <varray name="forces" >
   <v>      -0.00001892      -0.00006697       0.00002310 </v>
   <v>      -0.00001113       0.00003216      -0.00004289 </v>
   <v>      -0.00004949      -0.00004035      -0.00001306 </v>
   <v>       0.00005873       0.00002009       0.00002347 </v>
   <v>       0.00002174       0.00001557       0.00003468 </v>
   <v>      -0.00000778      -0.00002699       0.00004895 </v>
   <v>       0.00001400       0.00007846       0.00001212 </v>
   <v>       0.00005709       0.00000385       0.00002408 </v>
   <v>       0.04522685      -0.04526886       0.04516148 </v>
   <v>       0.04516224      -0.04518860       0.04518419 </v>
   <v>       0.04519364      -0.04513138       0.04519492 </v>
   <v>       0.04514070      -0.04518061       0.04517952 </v>
   <v>       0.04521823      -0.04527574       0.04522969 </v>
   <v>       0.04509853      -0.04522476       0.04517916 </v>
   <v>       0.04519060      -0.04509358       0.04516794 </v>
   <v>       0.04523289      -0.04512098       0.04520894 </v>
   <v>      -0.00001012      -0.00004555      -0.00001780 </v>
   <v>       0.00002927      -0.00008168      -0.00004579 </v>
   <v>      -0.00005293       0.00010743       0.00007083 </v>
   <v>       0.00006075       0.00004281      -0.00012794 </v>
   <v>      -0.00003952      -0.00013813       0.00000556 </v>
   <v>       0.00006682      -0.00002852       0.00009481 </v>
   <v>       0.00004195       0.00003658       0.00003382 </v>
   <v>      -0.00003466       0.00007680      -0.00001895 </v>
   <v>       0.04521020       0.04512284      -0.04520014 </v>
   <v>       0.04519054       0.04517842      -0.04530109 </v>
   <v>       0.04519676       0.04519832      -0.04529474 </v>
   <v>       0.04511781       0.04527517      -0.04524097 </v>
   <v>       0.04516345       0.04515262      -0.04513896 </v>
   <v>       0.04517701       0.04516734      -0.04515725 </v>
   <v>       0.04523327       0.04523101      -0.04511365 </v>
   <v>       0.04518375       0.04521496      -0.04511693 </v>
   <v>      -0.00002809      -0.00004912      -0.00001850 </v>
   <v>       0.00002140      -0.00005367      -0.00004611 </v>
   <v>       0.00002303      -0.00003596      -0.00000857 </v>
   <v>       0.00006318       0.00009240      -0.00005289 </v>
   <v>       0.00002088       0.00004981       0.00004206 </v>
   <v>       0.00004791      -0.00005752       0.00007247 </v>
   <v>       0.00000722       0.00001146       0.00002139 </v>
   <v>      -0.00008205       0.00001733      -0.00000298 </v>
   <v>      -0.04517986      -0.04523552      -0.04519753 </v>
   <v>      -0.04522897      -0.04525153      -0.04529830 </v>
   <v>      -0.04515723      -0.04512001      -0.04532975 </v>
   <v>      -0.04518335      -0.04509895      -0.04517973 </v>
   <v>      -0.04520012      -0.04527668      -0.04514081 </v>
   <v>      -0.04516423      -0.04525319      -0.04516189 </v>
   <v>      -0.04527953      -0.04515009      -0.04513685 </v>
   <v>      -0.04519784      -0.04512715      -0.04515553 </v>
   <v>      -0.00002036      -0.00006246       0.00001215 </v>
   <v>       0.00005683      -0.00006559      -0.00009908 </v>
   <v>       0.00002605       0.00008756      -0.00006880 </v>
   <v>      -0.00002904       0.00008331       0.00007507 </v>
   <v>      -0.00000740      -0.00003282       0.00009646 </v>
   <v>      -0.00002231      -0.00013334       0.00001812 </v>
   <v>      -0.00002804       0.00009185      -0.00004726 </v>
   <v>       0.00005665       0.00002882       0.00006428 </v>
   <v>      -0.04524521       0.04518527       0.04513834 </v>
   <v>      -0.04520232       0.04511860       0.04523322 </v>
   <v>      -0.04515455       0.04520136       0.04515469 </v>
   <v>      -0.04517496       0.04526645       0.04517760 </v>
   <v>      -0.04519338       0.04515247       0.04526855 </v>
   <v>      -0.04519779       0.04515090       0.04515268 </v>
   <v>      -0.04518392       0.04520701       0.04523461 </v>
   <v>      -0.04515772       0.04522484       0.04516242 </v>
  </varray>
  <varray name="stress" >
   <v>      10.25070817       0.00025431      -0.00006438 </v>
   <v>       0.00025412      10.25067156       0.00041370 </v>
   <v>      -0.00006434       0.00041373      10.25067370 </v>
  </varray>
  <energy>
   <i name="e_fr_energy">   -359.71628559 </i>
   <i name="e_wo_entrp">   -359.71620176 </i>
   <i name="e_0_energy">     -0.00016765 </i>
   <i name="kinetic">      4.88605769 </i>
   <i name="lattice kinetic">      0.00000000 </i>
   <i name="nosepot">      0.00000000 </i>
   <i name="nosekinetic">      0.00000000 </i>
   <i name="total">   -354.83022789 </i>
  </energy>
  <time name="totalsc">    9.05    9.05</time>
 </calculation>
 <calculation>
  <scstep>
   <time name="diag">    0.17    0.17</time>
   <time name="diis">    0.42    0.42</time>
   <time name="orth">    0.04    0.04</time>
   <time name="total">    0.70    0.70</time>
   <energy>
    <i name="alphaZ">    107.59920118 </i>
    <i name="ewald">  -7312.07046876 </i>
    <i name="hartreedc">   -479.89477448 </i>
    <i name="XCdc">   -537.38672970 </i>
    <i name="pawpsdc">  33656.56502583 </i>
    <i name="pawaedc"> -32557.59742742 </i>
    <i name="eentropy">     -0.00040649 </i>
    <i name="bandstr">    198.74895528 </i>
    <i name="atom">   6564.54007760 </i>
    <i name="e_fr_energy">   -359.49654696 </i>
    <i name="e_wo_entrp">   -359.49614047 </i>
    <i name="e_0_energy">   -359.49634372 </i>
   </energy>
  </scstep>
  <scstep>
   <time name="diag">    0.16    0.16</time>
   <time name="diis">    0.41    0.41</time>
   <time name="orth">    0.04    0.04</time>
   <time name="total">    0.69    0.69</time>
   <energy>
    <i name="e_fr_energy">   -359.50886585 </i>
    <i name="e_wo_entrp">   -359.50845930 </i>
    <i name="e_0_energy">   -359.50866258 </i>
   </energy>
  </scstep>
  <scstep>
   <time name="diag">    0.17    0.17</time>
   <time name="diis">    0.42    0.42</time>
   <time name="orth">    0.04    0.04</time>
   <time name="total">    0.70    0.70</time>
   <energy>
    <i name="e_fr_energy">   -359.50361785 </i>
    <i name="e_wo_entrp">   -359.50322497 </i>
    <i name="e_0_energy">   -359.50342141 </i>
   </energy>
  </scstep>
  <scstep>
   <time name="diag">    0.16    0.16</time>
   <time name="diis">    0.42    0.42</time>
   <time name="orth">    0.04    0.04</time>
   <time name="total">    0.70    0.70</time>
   <energy>
    <i name="e_fr_energy">   -359.50271996 </i>
    <i name="e_wo_entrp">   -359.50234075 </i>
    <i name="e_0_energy">   -359.50253035 </i>
   </energy>
  </scstep>
  <scstep>
   <time name="diag">    0.17    0.17</time>
   <time name="diis">    0.43    0.43</time>
   <time name="orth">    0.04    0.04</time>
   <time name="total">    0.72    0.72</time>
   <energy>
    <i name="e_fr_energy">   -359.50257230 </i>
    <i name="e_wo_entrp">   -359.50219175 </i>
    <i name="e_0_energy">   -359.50238202 </i>
   </energy>
  </scstep>
  <scstep>
   <time name="diag">    0.17    0.17</time>
   <time name="diis">    0.42    0.42</time>
   <time name="orth">    0.04    0.04</time>
   <time name="total">    0.70    0.70</time>
   <energy>
    <i name="e_fr_energy">   -359.50255799 </i>
    <i name="e_wo_entrp">   -359.50217642 </i>
    <i name="e_0_energy">   -359.50236720 </i>
   </energy>
  </scstep>
  <scstep>
   <time name="diag">    0.17    0.17</time>
   <time name="diis">    0.38    0.38</time>
   <time name="orth">    0.04    0.04</time>
   <time name="total">    0.61    0.61</time>
   <energy>
    <i name="alphaZ">    107.59920118 </i>
    <i name="ewald">  -7312.07046876 </i>
    <i name="hartreedc">   -479.92614050 </i>
    <i name="XCdc">   -537.38187214 </i>
    <i name="pawpsdc">  33679.55636702 </i>
    <i name="pawaedc"> -32580.59634164 </i>
    <i name="eentropy">     -0.00038143 </i>
    <i name="bandstr">    198.77700122 </i>
    <i name="atom">   6564.54007760 </i>
    <i name="e_fr_energy">   -359.50255745 </i>
    <i name="e_wo_entrp">   -359.50217603 </i>
    <i name="e_0_energy">   -359.50236674 </i>
   </energy>
  </scstep>
  <structure>
   <crystal>
    <varray name="basis" >
     <v>      10.86180000       0.00000000       0.00000000 </v>
     <v>       0.00000000      10.86180000       0.00000000 </v>
     <v>       0.00000000       0.00000000      10.86180000 </v>
    </varray>
    <i name="volume">   1281.46103541 </i>
    <varray name="rec_basis" >
     <v>       0.09206577       0.00000000       0.00000000 </v>
     <v>       0.00000000       0.09206577       0.00000000 </v>
     <v>       0.00000000       0.00000000       0.09206577 </v>
    </varray>
   </crystal>
   <varray name="positions" >
    <v>       0.99763398       0.00016148       0.00254701 </v>
    <v>       0.49920981       0.00204368       0.00219325 </v>
    <v>       0.99800590       0.50040073       0.00142960 </v>
    <v>       0.50042964       0.50219232       0.99849918 </v>
    <v>       0.00179328       0.00198775       0.50038673 </v>
    <v>       0.50075608       0.00125851       0.49862834 </v>
    <v>       0.99681820       0.49934619       0.49960973 </v>
    <v>       0.49910331       0.50081951       0.50180438 </v>
    <v>       0.37645309       0.12210739       0.37563140 </v>
    <v>       0.87360543       0.12664675       0.37661609 </v>
    <v>       0.37544865       0.62395577       0.37540009 </v>
    <v>       0.87473463       0.62407545       0.37596334 </v>
    <v>       0.37515291       0.12568824       0.87445294 </v>
    <v>       0.87469845       0.12470702       0.87482224 </v>
    <v>       0.37599037       0.62591866       0.87512200 </v>
    <v>       0.87390336       0.62355054       0.87532406 </v>
    <v>       0.00076760       0.24954838       0.24855500 </v>
    <v>       0.50136929       0.24880991       0.24851706 </v>
    <v>       0.99965449       0.74986845       0.24966946 </v>
    <v>       0.50075277       0.74990305       0.25080475 </v>
    <v>       0.00078052       0.25047536       0.74877615 </v>
    <v>       0.49991666       0.25037436       0.75057356 </v>
    <v>       0.99937792       0.74941151       0.75019270 </v>
    <v>       0.50058104       0.75146679       0.74934089 </v>
    <v>       0.37611499       0.37635839       0.12368099 </v>
    <v>       0.87606722       0.37598813       0.12586248 </v>
    <v>       0.37530361       0.87354360       0.12577247 </v>
    <v>       0.87461819       0.87372489       0.12374064 </v>
    <v>       0.37338769       0.37530177       0.62458687 </v>
    <v>       0.87495417       0.37456011       0.62282694 </v>
    <v>       0.37609740       0.87310661       0.62482594 </v>
    <v>       0.87588017       0.87667927       0.62560846 </v>
    <v>       0.25041550       0.99959914       0.24850060 </v>
    <v>       0.74968859       0.00047993       0.25118165 </v>
    <v>       0.25150359       0.50059623       0.24961187 </v>
    <v>       0.74856044       0.50096896       0.24811721 </v>
    <v>       0.25005513       0.99876871       0.74964467 </v>
    <v>       0.75074477       0.00006263       0.75001892 </v>
    <v>       0.25016163       0.50132181       0.75242600 </v>
    <v>       0.75095977       0.50094526       0.74880339 </v>
    <v>       0.12446827       0.12571524       0.12599933 </v>
    <v>       0.62393241       0.12783619       0.12462570 </v>
    <v>       0.12607838       0.62324580       0.12398391 </v>
    <v>       0.62607107       0.62502085       0.12672454 </v>
    <v>       0.12569999       0.12454350       0.62308193 </v>
    <v>       0.62429599       0.12435226       0.62188576 </v>
    <v>       0.12473918       0.62400933       0.62444795 </v>
    <v>       0.62366913       0.62501913       0.62690933 </v>
    <v>       0.24955450       0.24952995       0.99980801 </v>
    <v>       0.74939336       0.24964955       0.00044001 </v>
    <v>       0.24911995       0.74951159       0.99968580 </v>
    <v>       0.74926121       0.75067739       0.00063784 </v>
    <v>       0.25137631       0.24891322       0.49980559 </v>
    <v>       0.75133461       0.24871746       0.50218106 </v>
    <v>       0.24874501       0.74933851       0.50062616 </v>
    <v>       0.74916146       0.75099841       0.50065579 </v>
    <v>       0.12476164       0.37414895       0.37461313 </v>
    <v>       0.62385309       0.37249056       0.37360064 </v>
    <v>       0.12558794       0.87473394       0.37553732 </v>
    <v>       0.62453662       0.87398825       0.37325521 </v>
    <v>       0.12646376       0.37337595       0.87592151 </v>
    <v>       0.62552586       0.37572353       0.87685092 </v>
    <v>       0.12555166       0.87508913       0.87529616 </v>
    <v>       0.62536837       0.87664811       0.87335735 </v>
   </varray>
  </structure>
  <varray name="forces" >
   <v>       0.36574639       0.00051415      -0.33437880 </v>
   <v>       0.04743685      -0.23867365      -0.29078030 </v>
   <v>       0.36439362      -0.19977025      -0.34022794 </v>
   <v>       0.09852156      -0.09063297       0.29996805 </v>
   <v>      -0.30522328      -0.24506953      -0.20791745 </v>
   <v>      -0.02744571      -0.58638194       0.10588939 </v>
   <v>       0.51756474      -0.01816204      -0.06376577 </v>
   <v>       0.18064328      -0.31304815      -0.22973704 </v>
   <v>      -0.13096372       0.39355893      -0.30800388 </v>
   <v>       0.38749337      -0.24412785      -0.23198583 </v>
   <v>      -0.02074554       0.21010312       0.10026196 </v>
   <v>      -0.19999293       0.22201841      -0.19883666 </v>
   <v>      -0.05899851      -0.18020447       0.07855574 </v>
   <v>       0.11590501       0.12438376       0.06640666 </v>
   <v>      -0.02700164       0.16063692      -0.04252725 </v>
   <v>       0.10061983       0.26693013       0.06065496 </v>
   <v>      -0.18815103       0.09058079       0.31390432 </v>
   <v>      -0.45909096       0.10786255       0.15523313 </v>
   <v>       0.15355912      -0.14117612       0.05646399 </v>
   <v>      -0.20208102      -0.17701706      -0.09282827 </v>
   <v>       0.01767899      -0.09302011       0.03450314 </v>
   <v>       0.11031364       0.04831929      -0.22316907 </v>
   <v>       0.10365311       0.03129331       0.02359776 </v>
   <v>      -0.00790624      -0.10935702       0.22233230 </v>
   <v>       0.02240912      -0.12253470      -0.00708915 </v>
   <v>      -0.25275574      -0.16453408      -0.10634459 </v>
   <v>      -0.00030475       0.07170158      -0.19835795 </v>
   <v>      -0.08251337       0.19895882       0.36569901 </v>
   <v>       0.12467165       0.03375513       0.24860215 </v>
   <v>       0.01214357       0.07413676       0.39943275 </v>
   <v>      -0.09389465       0.33213041      -0.19734411 </v>
   <v>       0.04335442      -0.11503185      -0.15736135 </v>
   <v>      -0.04243734      -0.07602403       0.21947572 </v>
   <v>       0.02031509       0.01899603      -0.31784833 </v>
   <v>      -0.09155412      -0.19873576       0.04822513 </v>
   <v>       0.18051583      -0.28042799       0.42376084 </v>
   <v>       0.09872974       0.15828250      -0.03161560 </v>
   <v>      -0.16666192       0.16579587      -0.20001293 </v>
   <v>      -0.02297573      -0.14630599      -0.21715249 </v>
   <v>      -0.14389374      -0.26983071       0.07556286 </v>
   <v>       0.05622301      -0.22912831      -0.23157435 </v>
   <v>       0.30104876      -0.48255103       0.04993583 </v>
   <v>      -0.20582934       0.20825363       0.14120884 </v>
   <v>      -0.32812705       0.16840766      -0.37505602 </v>
   <v>       0.09277853       0.08100893       0.32791538 </v>
   <v>       0.06032445       0.03555932       0.59534781 </v>
   <v>      -0.23333038      -0.07974796       0.11782894 </v>
   <v>       0.16854069       0.06404110      -0.23555712 </v>
   <v>       0.19720295       0.01138119       0.14820605 </v>
   <v>       0.28759894       0.20753741      -0.03608290 </v>
   <v>       0.21578578       0.05050980       0.05232709 </v>
   <v>      -0.04048270      -0.15943799      -0.27806953 </v>
   <v>      -0.05218367       0.03444378      -0.17879298 </v>
   <v>      -0.34561959       0.23152649      -0.34767037 </v>
   <v>       0.19431160      -0.06575489      -0.10017789 </v>
   <v>       0.09351867      -0.11680129       0.04445960 </v>
   <v>       0.03687173       0.13446789       0.04438030 </v>
   <v>       0.22265055       0.35064808       0.37431105 </v>
   <v>      -0.15192262       0.13005780      -0.10672129 </v>
   <v>       0.07616855       0.25294330       0.30576310 </v>
   <v>      -0.40131529       0.37277106       0.01184956 </v>
   <v>       0.01443642       0.04580006      -0.33051154 </v>
   <v>      -0.35127120       0.10239976       0.11645962 </v>
   <v>      -0.17704826       0.04229266       0.42905392 </v>
  </varray>
  <varray name="stress" >
   <v>      10.36713165       0.89506827       2.00140489 </v>
   <v>       0.89506808      10.23501876      -0.77918424 </v>
   <v>       2.00140500      -0.77918381      10.28665210 </v>
  </varray>
  <energy>
   <i name="e_fr_energy">   -359.50255745 </i>
   <i name="e_wo_entrp">   -359.50236674 </i>
   <i name="e_0_energy">     -0.00038143 </i>
   <i name="kinetic">      4.68203026 </i>
   <i name="lattice kinetic">      0.00000000 </i>
   <i name="nosepot">      0.00001373 </i>
   <i name="nosekinetic">      0.00000001 </i>
   <i name="total">   -354.82051346 </i>
  </energy>
  <time name="totalsc">    5.96    5.97</time>
 </calculation>
 <calculation>
  <scstep>
   <time name="diag">    0.16    0.16</time>
   <time name="diis">    0.42    0.42</time>
   <time name="orth">    0.04    0.04</time>
   <time name="total">    0.69    0.70</time>
   <energy>
    <i name="alphaZ">    107.59920118 </i>
    <i name="ewald">  -7309.99905750 </i>
    <i name="hartreedc">   -481.17328301 </i>
    <i name="XCdc">   -537.38256763 </i>
    <i name="pawpsdc">  33708.04928289 </i>
    <i name="pawaedc"> -32609.09709502 </i>
    <i name="eentropy">     -0.00165422 </i>
    <i name="bandstr">    198.53331260 </i>
    <i name="atom">   6564.54007760 </i>
    <i name="e_fr_energy">   -358.93178309 </i>
    <i name="e_wo_entrp">   -358.93012888 </i>
    <i name="e_0_energy">   -358.93095599 </i>
   </energy>
  </scstep>
  <scstep>
   <time name="diag">    0.16    0.16</time>
   <time name="diis">    0.42    0.42</time>
   <time name="orth">    0.04    0.04</time>
   <time name="total">    0.70    0.70</time>
   <energy>
    <i name="e_fr_energy">   -358.93190095 </i>
    <i name="e_wo_entrp">   -358.93025758 </i>
    <i name="e_0_energy">   -358.93107926 </i>
   </energy>
  </scstep>
  <scstep>
   <time name="diag">    0.17    0.17</time>
   <time name="diis">    0.46    0.46</time>
   <time name="orth">    0.04    0.04</time>
   <time name="total">    0.74    0.74</time>
   <energy>
    <i name="e_fr_energy">   -358.93190326 </i>
    <i name="e_wo_entrp">   -358.93026305 </i>
    <i name="e_0_energy">   -358.93108316 </i>
   </energy>
  </scstep>
  <scstep>
   <time name="diag">    0.16    0.16</time>
   <time name="diis">    0.44    0.44</time>
   <time name="orth">    0.06    0.06</time>
   <time name="total">    0.76    0.76</time>
   <energy>
    <i name="e_fr_energy">   -358.93190478 </i>
    <i name="e_wo_entrp">   -358.93026481 </i>
    <i name="e_0_energy">   -358.93108480 </i>
   </energy>
  </scstep>
  <scstep>
   <time name="diag">    0.20    0.20</time>
   <time name="diis">    0.28    0.28</time>
   <time name="orth">    0.04    0.04</time>
   <time name="total">    0.61    0.61</time>
   <energy>
    <i name="e_fr_energy">   -358.93190693 </i>
    <i name="e_wo_entrp">   -358.93026754 </i>
    <i name="e_0_energy">   -358.93108723 </i>
   </energy>
  </scstep>
  <scstep>
   <time name="diag">    0.17    0.17</time>
   <time name="diis">    0.28    0.28</time>
   <time name="orth">    0.04    0.04</time>
   <time name="total">    0.51    0.51</time>
   <energy>
    <i name="alphaZ">    107.59920118 </i>
    <i name="ewald">  -7309.99905750 </i>
    <i name="hartreedc">   -480.99221460 </i>
    <i name="XCdc">   -537.39820496 </i>
    <i name="pawpsdc">  33717.92404906 </i>
    <i name="pawaedc"> -32618.98258124 </i>
    <i name="eentropy">     -0.00163914 </i>
    <i name="bandstr">    198.37846237 </i>
    <i name="atom">   6564.54007760 </i>
    <i name="e_fr_energy">   -358.93190723 </i>
    <i name="e_wo_entrp">   -358.93026809 </i>
    <i name="e_0_energy">   -358.93108766 </i>
   </energy>
  </scstep>
  <structure>
   <crystal>
    <varray name="basis" >
     <v>      10.86180000       0.00000000       0.00000000 </v>
     <v>       0.00000000      10.86180000       0.00000000 </v>
     <v>       0.00000000       0.00000000      10.86180000 </v>
    </varray>
    <i name="volume">   1281.46103541 </i>
    <varray name="rec_basis" >
     <v>       0.09206577       0.00000000       0.00000000 </v>
     <v>       0.00000000       0.09206577       0.00000000 </v>
     <v>       0.00000000       0.00000000       0.09206577 </v>
    </varray>
   </crystal>
   <varray name="positions" >
    <v>       0.99537087       0.00032270       0.00499953 </v>
    <v>       0.49843192       0.00401902       0.00430444 </v>
    <v>       0.99611433       0.50074418       0.00276305 </v>
    <v>       0.50088613       0.50435844       0.99708447 </v>
    <v>       0.00349847       0.00390533       0.50071499 </v>
    <v>       0.50150313       0.00234970       0.49728754 </v>
    <v>       0.99378254       0.49868680       0.49920201 </v>
    <v>       0.49825683       0.50154951       0.50354407 </v>
    <v>       0.37786770       0.11932641       0.37617584 </v>
    <v>       0.87231997       0.12822359       0.37816686 </v>
    <v>       0.37589019       0.62297094       0.37582942 </v>
    <v>       0.87441111       0.62321369       0.37687078 </v>
    <v>       0.37528782       0.12632477       0.87392895 </v>
    <v>       0.87442868       0.12444904       0.87466409 </v>
    <v>       0.37697184       0.62688263       0.87523260 </v>
    <v>       0.87283417       0.62217666       0.87566610 </v>
    <v>       0.00148043       0.24912214       0.24720007 </v>
    <v>       0.50260668       0.24765012       0.24707902 </v>
    <v>       0.99935148       0.74969631       0.24935571 </v>
    <v>       0.50144680       0.74975531       0.25158378 </v>
    <v>       0.00156486       0.25092383       0.74756283 </v>
    <v>       0.49986350       0.25076207       0.75108430 </v>
    <v>       0.99878415       0.74883152       0.75039283 </v>
    <v>       0.50115862       0.75290203       0.74874579 </v>
    <v>       0.37723514       0.37768149       0.12236069 </v>
    <v>       0.87706128       0.37692901       0.12669540 </v>
    <v>       0.37560592       0.87210722       0.12648919 </v>
    <v>       0.87421169       0.87250602       0.12258610 </v>
    <v>       0.37180968       0.37561275       0.62424523 </v>
    <v>       0.87491058       0.37414092       0.62076829 </v>
    <v>       0.37716686       0.87130736       0.62459642 </v>
    <v>       0.87677147       0.87832538       0.62617283 </v>
    <v>       0.25081770       0.99917623       0.24706440 </v>
    <v>       0.74938175       0.00096486       0.25227354 </v>
    <v>       0.25297991       0.50113549       0.24923818 </v>
    <v>       0.74717106       0.50185770       0.24635577 </v>
    <v>       0.25013716       0.99758207       0.74928105 </v>
    <v>       0.75144088       0.00017205       0.74998161 </v>
    <v>       0.25031552       0.50260156       0.75479089 </v>
    <v>       0.75187737       0.50181330       0.74762900 </v>
    <v>       0.12395134       0.12636485       0.12693345 </v>
    <v>       0.62294932       0.13053460       0.12426633 </v>
    <v>       0.12709697       0.62155049       0.12300872 </v>
    <v>       0.62704752       0.62508924       0.12834301 </v>
    <v>       0.12642518       0.12410966       0.62125793 </v>
    <v>       0.62360794       0.12371423       0.61894171 </v>
    <v>       0.12441074       0.62299556       0.62393015 </v>
    <v>       0.62238504       0.62505609       0.62875231 </v>
    <v>       0.24916393       0.24906273       0.99965892 </v>
    <v>       0.74886739       0.24935778       0.00087045 </v>
    <v>       0.24830012       0.74903716       0.99938721 </v>
    <v>       0.74850969       0.75130899       0.00119724 </v>
    <v>       0.25273655       0.24783585       0.49956100 </v>
    <v>       0.75256962       0.24750043       0.50426386 </v>
    <v>       0.24754412       0.74865789       0.50122452 </v>
    <v>       0.74834835       0.75196316       0.50132494 </v>
    <v>       0.12453257       0.37333578       0.37423960 </v>
    <v>       0.62276835       0.37008054       0.37230854 </v>
    <v>       0.12613142       0.87450451       0.37604498 </v>
    <v>       0.62409371       0.87304811       0.37159818 </v>
    <v>       0.12781207       0.37185762       0.87684710 </v>
    <v>       0.62605462       0.37645970       0.87860846 </v>
    <v>       0.12600211       0.87520701       0.87562618 </v>
    <v>       0.62568513       0.87830786       0.87183755 </v>
   </varray>
  </structure>
  <varray name="forces" >
   <v>       0.72426009       0.03157875      -0.67631607 </v>
   <v>       0.08664385      -0.48204390      -0.59958859 </v>
   <v>       0.68680710      -0.33245589      -0.59500602 </v>
   <v>       0.20993729      -0.17778497       0.54753974 </v>
   <v>      -0.58857433      -0.51098362      -0.41814233 </v>
   <v>      -0.02739914      -1.15134909       0.19721788 </v>
   <v>       1.07566475      -0.05698015      -0.14379805 </v>
   <v>       0.29160642      -0.54935221      -0.41169636 </v>
   <v>      -0.33827953       0.79259909      -0.74152218 </v>
   <v>       0.69412823      -0.46471885      -0.46887240 </v>
   <v>      -0.06526834       0.45555461       0.16026963 </v>
   <v>      -0.46770451       0.45268094      -0.41285852 </v>
   <v>      -0.16964125      -0.32080740       0.12991673 </v>
   <v>       0.15505689       0.26316324       0.06506504 </v>
   <v>      -0.10919061       0.39626701      -0.11662373 </v>
   <v>       0.13289587       0.57370500       0.10217802 </v>
   <v>      -0.39504083       0.18893651       0.64542877 </v>
   <v>      -0.97954447       0.28376196       0.35571668 </v>
   <v>       0.28379929      -0.26027743       0.11561683 </v>
   <v>      -0.31605175      -0.37415877      -0.06456828 </v>
   <v>       0.04037127      -0.15330780       0.07682975 </v>
   <v>       0.19707389       0.09293118      -0.41752700 </v>
   <v>       0.12259532      -0.01266288       0.07383791 </v>
   <v>      -0.03553421      -0.21878404       0.40222021 </v>
   <v>      -0.03194434      -0.28057055       0.03600509 </v>
   <v>      -0.50471611      -0.33594455      -0.11759750 </v>
   <v>      -0.05100720       0.10382994      -0.33554945 </v>
   <v>      -0.14880862       0.30086486       0.74145963 </v>
   <v>       0.19666987       0.09958075       0.47270819 </v>
   <v>       0.00268312       0.09474827       0.81779652 </v>
   <v>      -0.26499055       0.60472277      -0.35800626 </v>
   <v>       0.07065632      -0.22855442      -0.26594785 </v>
   <v>      -0.05183417      -0.13413654       0.40478167 </v>
   <v>       0.01598603       0.09160008      -0.47606992 </v>
   <v>      -0.17998899      -0.40345553       0.07714418 </v>
   <v>       0.43437863      -0.65038257       0.87405968 </v>
   <v>       0.20842549       0.12537400      -0.11771619 </v>
   <v>      -0.24285748       0.31265900      -0.37219416 </v>
   <v>      -0.05376770      -0.31528676      -0.43456095 </v>
   <v>      -0.27165278      -0.57030537       0.15173950 </v>
   <v>       0.18101481      -0.43199977      -0.43349448 </v>
   <v>       0.68079480      -0.93501656       0.07613524 </v>
   <v>      -0.37230283       0.41021394       0.30794742 </v>
   <v>      -0.56426516       0.39910357      -0.68856018 </v>
   <v>       0.24838505       0.19404833       0.66965862 </v>
   <v>       0.19330670       0.15264576       1.17341889 </v>
   <v>      -0.40614622      -0.10004608       0.25871726 </v>
   <v>       0.40004404       0.13683938      -0.42673004 </v>
   <v>       0.38558439       0.01129121       0.29059788 </v>
   <v>       0.49115224       0.36700939      -0.03727084 </v>
   <v>       0.28367013       0.01920347       0.06052455 </v>
   <v>      -0.18551191      -0.21616506      -0.43412060 </v>
   <v>      -0.11632804       0.06115426      -0.33131653 </v>
   <v>      -0.70799508       0.47340648      -0.66646816 </v>
   <v>       0.34500877      -0.17108013      -0.18499205 </v>
   <v>       0.10824584      -0.13896880       0.10311351 </v>
   <v>       0.14643201       0.23372606       0.08018162 </v>
   <v>       0.45753212       0.65372267       0.64396155 </v>
   <v>      -0.23635452       0.21460177      -0.25337549 </v>
   <v>       0.22148678       0.44636859       0.52029690 </v>
   <v>      -0.70610823       0.63547912      -0.05024870 </v>
   <v>       0.05276388       0.05449960      -0.63205575 </v>
   <v>      -0.57804844       0.14872884       0.15538532 </v>
   <v>      -0.26192231       0.02102657       0.73014309 </v>
  </varray>
  <varray name="stress" >
   <v>      12.18365031       1.68986482       4.06072804 </v>
   <v>       1.68986488      11.78256904      -1.33594614 </v>
   <v>       4.06072800      -1.33594623      11.40505240 </v>
  </varray>
  <energy>
   <i name="e_fr_energy">   -358.93190723 </i>
   <i name="e_wo_entrp">   -358.93108766 </i>
   <i name="e_0_energy">     -0.00163914 </i>
   <i name="kinetic">      4.11937177 </i>
   <i name="lattice kinetic">      0.00000000 </i>
   <i name="nosepot">     -0.00286038 </i>
   <i name="nosekinetic">      0.00023730 </i>
   <i name="total">   -354.81515854 </i>
  </energy>
  <time name="totalsc">    5.21    5.21</time>
 </calculation>
 <calculation>
  <scstep>
   <time name="diag">    0.16    0.16</time>
   <time name="diis">    0.42    0.42</time>
   <time name="orth">    0.04    0.04</time>
   <time name="total">    0.70    0.70</time>
   <energy>
    <i name="alphaZ">    107.59920118 </i>
    <i name="ewald">  -7307.11956830 </i>
    <i name="hartreedc">   -482.29697572 </i>
    <i name="XCdc">   -537.43645282 </i>
    <i name="pawpsdc">  33778.74118299 </i>
    <i name="pawaedc"> -32679.83851104 </i>
    <i name="eentropy">     -0.00577333 </i>
    <i name="bandstr">    197.69488260 </i>
    <i name="atom">   6564.54007760 </i>
    <i name="e_fr_energy">   -358.12193685 </i>
    <i name="e_wo_entrp">   -358.11616352 </i>
    <i name="e_0_energy">   -358.11905018 </i>
   </energy>
  </scstep>
  <scstep>
   <time name="diag">    0.16    0.16</time>
   <time name="diis">    0.44    0.44</time>
   <time name="orth">    0.04    0.04</time>
   <time name="total">    0.72    0.72</time>
   <energy>
    <i name="e_fr_energy">   -358.12199675 </i>
    <i name="e_wo_entrp">   -358.11622451 </i>
    <i name="e_0_energy">   -358.11911063 </i>
   </energy>
  </scstep>
  <scstep>
   <time name="diag">    0.16    0.16</time>
   <time name="diis">    0.43    0.43</time>
   <time name="orth">    0.04    0.04</time>
   <time name="total">    0.71    0.71</time>
   <energy>
    <i name="e_fr_energy">   -358.12197784 </i>
    <i name="e_wo_entrp">   -358.11619206 </i>
    <i name="e_0_energy">   -358.11908495 </i>
   </energy>
  </scstep>
  <scstep>
   <time name="diag">    0.17    0.17</time>
   <time name="diis">    0.44    0.44</time>
   <time name="orth">    0.04    0.04</time>
   <time name="total">    0.72    0.72</time>
   <energy>
    <i name="e_fr_energy">   -358.12197608 </i>
    <i name="e_wo_entrp">   -358.11618474 </i>
    <i name="e_0_energy">   -358.11908041 </i>
   </energy>
  </scstep>
  <scstep>
   <time name="diag">    0.16    0.16</time>
   <time name="diis">    0.29    0.29</time>
   <time name="orth">    0.04    0.04</time>
   <time name="total">    0.57    0.57</time>
   <energy>
    <i name="e_fr_energy">   -358.12197462 </i>
    <i name="e_wo_entrp">   -358.11618119 </i>
    <i name="e_0_energy">   -358.11907790 </i>
   </energy>
  </scstep>
  <scstep>
   <time name="diag">    0.16    0.17</time>
   <time name="diis">    0.28    0.28</time>
   <time name="orth">    0.04    0.04</time>
   <time name="total">    0.51    0.51</time>
   <energy>
    <i name="alphaZ">    107.59920118 </i>
    <i name="ewald">  -7307.11956830 </i>
    <i name="hartreedc">   -482.46006512 </i>
    <i name="XCdc">   -537.42579714 </i>
    <i name="pawpsdc">  33774.67828236 </i>
    <i name="pawaedc"> -32675.76139284 </i>
    <i name="eentropy">     -0.00579316 </i>
    <i name="bandstr">    197.83308098 </i>
    <i name="atom">   6564.54007760 </i>
    <i name="e_fr_energy">   -358.12197445 </i>
    <i name="e_wo_entrp">   -358.11618130 </i>
    <i name="e_0_energy">   -358.11907787 </i>
   </energy>
  </scstep>
  <structure>
   <crystal>
    <varray name="basis" >
     <v>      10.86180000       0.00000000       0.00000000 </v>
     <v>       0.00000000      10.86180000       0.00000000 </v>
     <v>       0.00000000       0.00000000      10.86180000 </v>
    </varray>
    <i name="volume">   1281.46103541 </i>
    <varray name="rec_basis" >
     <v>       0.09206577       0.00000000       0.00000000 </v>
     <v>       0.00000000       0.09206577       0.00000000 </v>
     <v>       0.00000000       0.00000000       0.09206577 </v>
    </varray>
   </crystal>
   <varray name="positions" >
    <v>       0.99331088       0.00049336       0.00726167 </v>
    <v>       0.49767648       0.00585862       0.00624687 </v>
    <v>       0.99441545       0.50099353       0.00392860 </v>
    <v>       0.50140089       0.50647557       0.99582556 </v>
    <v>       0.00503530       0.00567889       0.50092512 </v>
    <v>       0.50224106       0.00311404       0.49600284 </v>
    <v>       0.99104961       0.49801116       0.49875385 </v>
    <v>       0.49749112       0.50212387       0.50516829 </v>
    <v>       0.37918505       0.11676983       0.37651018 </v>
    <v>       0.87122963       0.12966940       0.37958576 </v>
    <v>       0.37631165       0.62211561       0.37630538 </v>
    <v>       0.87395247       0.62248069       0.37766193 </v>
    <v>       0.37537275       0.12687069       0.87344238 </v>
    <v>       0.87420114       0.12426620       0.87452511 </v>
    <v>       0.37792104       0.62796037       0.87531079 </v>
    <v>       0.87180041       0.62096569       0.87603817 </v>
    <v>       0.00207944       0.24874981       0.24602886 </v>
    <v>       0.50356412       0.24657081       0.24574215 </v>
    <v>       0.99912734       0.74945031       0.24907543 </v>
    <v>       0.50204949       0.74950130       0.25234563 </v>
    <v>       0.00235940       0.25132927       0.74637141 </v>
    <v>       0.49986468       0.25117683       0.75147719 </v>
    <v>       0.99822317       0.74824794       0.75061483 </v>
    <v>       0.50172465       0.75427619       0.74826560 </v>
    <v>       0.37834510       0.37892583       0.12105058 </v>
    <v>       0.87791044       0.37777515       0.12749606 </v>
    <v>       0.37589213       0.87069990       0.12711151 </v>
    <v>       0.87376081       0.87137245       0.12164274 </v>
    <v>       0.37028496       0.37595262       0.62403872 </v>
    <v>       0.87486598       0.37374882       0.61894203 </v>
    <v>       0.37815973       0.86967959       0.62426556 </v>
    <v>       0.87768166       0.87990774       0.62666255 </v>
    <v>       0.25120363       0.99871524       0.24574334 </v>
    <v>       0.74907752       0.00147651       0.25323124 </v>
    <v>       0.25440409       0.50156054       0.24888697 </v>
    <v>       0.74590279       0.50256212       0.24484291 </v>
    <v>       0.25027683       0.99643079       0.74888443 </v>
    <v>       0.75206650       0.00037092       0.74983903 </v>
    <v>       0.25045242       0.50379265       0.75703417 </v>
    <v>       0.75271640       0.50251982       0.74649786 </v>
    <v>       0.12348388       0.12689219       0.12774543 </v>
    <v>       0.62215773       0.13296873       0.12392916 </v>
    <v>       0.12800837       0.61997133       0.12212139 </v>
[...]
       <r>    -3.0551     0.0000    46.0000 </r>
       <r>    -2.9984     0.0000    46.0000 </r>
       <r>    -2.9418     0.0000    46.0000 </r>
       <r>    -2.8852     0.0000    46.0000 </r>
       <r>    -2.8286     0.0000    46.0000 </r>
       <r>    -2.7719     0.0000    46.0000 </r>
       <r>    -2.7153     0.0000    46.0000 </r>
       <r>    -2.6587     0.0000    46.0000 </r>
       <r>    -2.6021     0.0000    46.0000 </r>
       <r>    -2.5454     0.0000    46.0000 </r>
       <r>    -2.4888     0.0001    46.0000 </r>
       <r>    -2.4322     0.0023    46.0001 </r>
       <r>    -2.3756     0.0439    46.0026 </r>
       <r>    -2.3189     0.4558    46.0284 </r>
       <r>    -2.2623     2.6762    46.1800 </r>
       <r>    -2.2057     9.3698    46.7105 </r>
       <r>    -2.1491    21.6673    47.9374 </r>
       <r>    -2.0925    38.1789    50.0993 </r>
       <r>    -2.0358    56.2818    53.2862 </r>
       <r>    -1.9792    70.0382    57.2521 </r>
       <r>    -1.9226    75.6557    61.5361 </r>
       <r>    -1.8660    74.6308    65.7620 </r>
       <r>    -1.8093    69.7272    69.7103 </r>
       <r>    -1.7527    65.1895    73.4016 </r>
       <r>    -1.6961    59.8482    76.7905 </r>
       <r>    -1.6395    47.9052    79.5031 </r>
       <r>    -1.5828    29.0635    81.1488 </r>
       <r>    -1.5262    11.7325    81.8132 </r>
       <r>    -1.4696     2.8715    81.9758 </r>
       <r>    -1.4130     0.4989    82.0040 </r>
       <r>    -1.3563     0.9801    82.0595 </r>
       <r>    -1.2997     5.1994    82.3540 </r>
       <r>    -1.2431    16.4406    83.2849 </r>
       <r>    -1.1865    30.9361    85.0366 </r>
       <r>    -1.1298    36.3609    87.0956 </r>
       <r>    -1.0732    28.5098    88.7099 </r>
       <r>    -1.0166    15.5545    89.5907 </r>
       <r>    -0.9600     5.7256    89.9149 </r>
       <r>    -0.9033     1.3139    89.9893 </r>
       <r>    -0.8467     0.1754    89.9992 </r>
       <r>    -0.7901     0.0131    90.0000 </r>
       <r>    -0.7335     0.0005    90.0000 </r>
       <r>    -0.6768     0.0000    90.0000 </r>
       <r>    -0.6202     0.0000    90.0000 </r>
       <r>    -0.5636     0.0000    90.0000 </r>
       <r>    -0.5070     0.0000    90.0000 </r>
       <r>    -0.4503     0.0000    90.0000 </r>
       <r>    -0.3937     0.0000    90.0000 </r>
       <r>    -0.3371     0.0000    90.0000 </r>
       <r>    -0.2805     0.0000    90.0000 </r>
       <r>    -0.2238     0.0000    90.0000 </r>
       <r>    -0.1672     0.0001    90.0000 </r>
       <r>    -0.1106     0.0039    90.0002 </r>
       <r>    -0.0540     0.0694    90.0042 </r>
       <r>     0.0027     0.6875    90.0431 </r>
       <r>     0.0593     3.9207    90.2651 </r>
       <r>     0.1159    13.4788    91.0283 </r>
       <r>     0.1725    30.0240    92.7284 </r>
       <r>     0.2292    47.9620    95.4443 </r>
       <r>     0.2858    61.1642    98.9077 </r>
       <r>     0.3424    65.1525   102.5969 </r>
       <r>     0.3990    57.5525   105.8558 </r>
       <r>     0.4557    46.8742   108.5100 </r>
       <r>     0.5123    41.1215   110.8385 </r>
       <r>     0.5689    32.3165   112.6684 </r>
       <r>     0.6255    17.1077   113.6371 </r>
       <r>     0.6822     5.3593   113.9406 </r>
       <r>     0.7388     0.9501   113.9944 </r>
       <r>     0.7954     0.0935   113.9997 </r>
       <r>     0.8520     0.0051   114.0000 </r>
       <r>     0.9087     0.0001   114.0000 </r>
       <r>     0.9653     0.0000   114.0000 </r>
       <r>     1.0219     0.0000   114.0000 </r>
       <r>     1.0785     0.0000   114.0000 </r>
       <r>     1.1352     0.0000   114.0000 </r>
       <r>     1.1918     0.0000   114.0000 </r>
       <r>     1.2484     0.0000   114.0000 </r>
       <r>     1.3050     0.0000   114.0000 </r>
       <r>     1.3617     0.0000   114.0000 </r>
       <r>     1.4183     0.0003   114.0000 </r>
       <r>     1.4749     0.0078   114.0005 </r>
       <r>     1.5315     0.1278   114.0077 </r>
       <r>     1.5881     1.1994   114.0756 </r>
       <r>     1.6448     6.6377   114.4515 </r>
       <r>     1.7014    22.7776   115.7412 </r>
       <r>     1.7580    51.7075   118.6692 </r>
       <r>     1.8146    83.8607   123.4177 </r>
       <r>     1.8713   106.2745   129.4355 </r>
       <r>     1.9279   115.5040   135.9759 </r>
       <r>     1.9845   114.1207   142.4379 </r>
       <r>     2.0411   104.2582   148.3415 </r>
       <r>     2.0978    90.5386   153.4682 </r>
       <r>     2.1544    75.3388   157.7342 </r>
       <r>     2.2110    57.1192   160.9686 </r>
       <r>     2.2676    42.9368   163.3999 </r>
       <r>     2.3243    39.3708   165.6292 </r>
       <r>     2.3809    42.0365   168.0095 </r>
       <r>     2.4375    43.0834   170.4491 </r>
       <r>     2.4941    34.9485   172.4280 </r>
       <r>     2.5508    19.4234   173.5279 </r>
       <r>     2.6074     6.7663   173.9110 </r>
       <r>     2.6640     1.3978   173.9902 </r>
       <r>     2.7206     0.2141   174.0023 </r>
       <r>     2.7773     0.6626   174.0398 </r>
       <r>     2.8339     4.7399   174.3082 </r>
       <r>     2.8905    19.3981   175.4066 </r>
       <r>     2.9471    45.3871   177.9767 </r>
       <r>     3.0038    61.6622   181.4683 </r>
       <r>     3.0604    49.2368   184.2563 </r>
       <r>     3.1170    23.2186   185.5710 </r>
       <r>     3.1736     6.4381   185.9356 </r>
       <r>     3.2303     1.0372   185.9943 </r>
       <r>     3.2869     0.0956   185.9997 </r>
       <r>     3.3435     0.0050   186.0000 </r>
       <r>     3.4001     0.0001   186.0000 </r>
       <r>     3.4568     0.0002   186.0000 </r>
       <r>     3.5134     0.0076   186.0004 </r>
       <r>     3.5700     0.1311   186.0079 </r>
       <r>     3.6266     1.2543   186.0789 </r>
       <r>     3.6833     6.8182   186.4650 </r>
       <r>     3.7399    21.6518   187.6910 </r>
       <r>     3.7965    42.1671   190.0787 </r>
       <r>     3.8531    55.4340   193.2176 </r>
       <r>     3.9098    59.2554   196.5729 </r>
       <r>     3.9664    63.0663   200.1440 </r>
       <r>     4.0230    65.7484   203.8670 </r>
       <r>     4.0796    56.5081   207.0668 </r>
       <r>     4.1363    34.6404   209.0283 </r>
       <r>     4.1929    14.6655   209.8587 </r>
       <r>     4.2495     9.2435   210.3821 </r>
       <r>     4.3061    19.7997   211.5033 </r>
       <r>     4.3628    38.5595   213.6867 </r>
       <r>     4.4194    52.8276   216.6780 </r>
       <r>     4.4760    59.5375   220.0493 </r>
       <r>     4.5326    67.4476   223.8685 </r>
       <r>     4.5893    79.5657   228.3739 </r>
       <r>     4.6459    86.5923   233.2771 </r>
       <r>     4.7025    83.7765   238.0209 </r>
       <r>     4.7591    76.0176   242.3254 </r>
       <r>     4.8158    63.3960   245.9152 </r>
       <r>     4.8724    42.9769   248.3487 </r>
       <r>     4.9290    20.9375   249.5343 </r>
       <r>     4.9856     6.7213   249.9149 </r>
       <r>     5.0423     1.3354   249.9905 </r>
       <r>     5.0989     0.1565   249.9994 </r>
       <r>     5.1555     0.0104   250.0000 </r>
       <r>     5.2121     0.0004   250.0000 </r>
       <r>     5.2688     0.0000   250.0000 </r>
       <r>     5.3254     0.0000   250.0000 </r>
       <r>     5.3820     0.0000   250.0000 </r>
       <r>     5.4386     0.0000   250.0000 </r>
       <r>     5.4952     0.0001   250.0000 </r>
       <r>     5.5519     0.0040   250.0002 </r>
       <r>     5.6085     0.0713   250.0043 </r>
       <r>     5.6651     0.7007   250.0439 </r>
       <r>     5.7217     3.8226   250.2604 </r>
       <r>     5.7784    11.6881   250.9222 </r>
       <r>     5.8350    20.2848   252.0708 </r>
       <r>     5.8916    20.8789   253.2531 </r>
       <r>     5.9482    15.6307   254.1382 </r>
       <r>     6.0049    13.0585   254.8776 </r>
       <r>     6.0615    11.2138   255.5126 </r>
       <r>     6.1181     7.0256   255.9104 </r>
       <r>     6.1747     5.7925   256.2384 </r>
       <r>     6.2314    12.3262   256.9364 </r>
       <r>     6.2880    25.6374   258.3881 </r>
       <r>     6.3446    40.5834   260.6861 </r>
       <r>     6.4012    48.1314   263.4115 </r>
       <r>     6.4579    41.1032   265.7390 </r>
       <r>     6.5145    25.1411   267.1626 </r>
       <r>     6.5711    11.2870   267.8017 </r>
       <r>     6.6277     5.5958   268.1186 </r>
       <r>     6.6844    10.6115   268.7195 </r>
       <r>     6.7410    25.6884   270.1740 </r>
       <r>     6.7976    42.0965   272.5577 </r>
       <r>     6.8542    48.2359   275.2891 </r>
       <r>     6.9109    41.4898   277.6384 </r>
       <r>     6.9675    26.5649   279.1427 </r>
       <r>     7.0241    11.7000   279.8052 </r>
       <r>     7.0807     4.6034   280.0658 </r>
       <r>     7.1374     8.2906   280.5353 </r>
       <r>     7.1940    23.0439   281.8401 </r>
       <r>     7.2506    39.0768   284.0528 </r>
       <r>     7.3072    38.5716   286.2370 </r>
       <r>     7.3639    22.1696   287.4923 </r>
       <r>     7.4205     7.3884   287.9107 </r>
       <r>     7.4771     1.4144   287.9908 </r>
       <r>     7.5337     0.1536   287.9995 </r>
       <r>     7.5904     0.0094   288.0000 </r>
       <r>     7.6470     0.0011   288.0000 </r>
       <r>     7.7036     0.0186   288.0011 </r>
       <r>     7.7602     0.2460   288.0150 </r>
       <r>     7.8169     1.8321   288.1188 </r>
       <r>     7.8735     7.9563   288.5693 </r>
       <r>     7.9301    21.3132   289.7761 </r>
       <r>     7.9867    38.3481   291.9476 </r>
       <r>     8.0434    51.4737   294.8623 </r>
       <r>     8.1000    57.2984   298.1068 </r>
       <r>     8.1566    59.1804   301.4578 </r>
       <r>     8.2132    61.6906   304.9510 </r>
       <r>     8.2699    61.4162   308.4287 </r>
       <r>     8.3265    53.5936   311.4634 </r>
       <r>     8.3831    44.2590   313.9696 </r>
       <r>     8.4397    35.6382   315.9876 </r>
       <r>     8.4964    22.8738   317.2828 </r>
       <r>     8.5530    10.0850   317.8539 </r>
       <r>     8.6096     4.6366   318.1164 </r>
       <r>     8.6662     7.5122   318.5418 </r>
       <r>     8.7229    14.4867   319.3621 </r>
       <r>     8.7795    18.6351   320.4173 </r>
       <r>     8.8361    15.8348   321.3139 </r>
       <r>     8.8927     8.6533   321.8039 </r>
       <r>     8.9494     2.8602   321.9659 </r>
       <r>     9.0060     0.5420   321.9966 </r>
       <r>     9.0626     0.0570   321.9998 </r>
       <r>     9.1192     0.0033   322.0000 </r>
       <r>     9.1758     0.0001   322.0000 </r>
       <r>     9.2325     0.0000   322.0000 </r>
       <r>     9.2891     0.0000   322.0000 </r>
       <r>     9.3457     0.0000   322.0000 </r>
       <r>     9.4023     0.0000   322.0000 </r>
       <r>     9.4590     0.0000   322.0000 </r>
       <r>     9.5156     0.0000   322.0000 </r>
       <r>     9.5722     0.0000   322.0000 </r>
       <r>     9.6288     0.0000   322.0000 </r>
       <r>     9.6855     0.0000   322.0000 </r>
       <r>     9.7421     0.0000   322.0000 </r>
       <r>     9.7987     0.0000   322.0000 </r>
      </set>
     </set>
    </array>
   </total>
  </dos>
 </calculation>
 <structure name="finalpos" >
  <crystal>
   <varray name="basis" >
    <v>      10.86180000       0.00000000       0.00000000 </v>
    <v>       0.00000000      10.86180000       0.00000000 </v>
    <v>       0.00000000       0.00000000      10.86180000 </v>
   </varray>
   <i name="volume">   1281.46103541 </i>
   <varray name="rec_basis" >
    <v>       0.09206577       0.00000000       0.00000000 </v>
    <v>       0.00000000       0.09206577       0.00000000 </v>
    <v>       0.00000000       0.00000000       0.09206577 </v>
   </varray>
  </crystal>
  <varray name="positions" >
   <v>       0.01013731       0.00341191       0.00082494 </v>
   <v>       0.51164916       0.98376292       0.99551397 </v>
   <v>       0.98954461       0.50096884       0.00189053 </v>
   <v>       0.49386657       0.49932415       0.99969131 </v>
   <v>       0.00335330       0.98781383       0.49323476 </v>
   <v>       0.48841295       0.02026481       0.51429402 </v>
   <v>       0.01012515       0.48124593       0.51482512 </v>
   <v>       0.50203936       0.51413198       0.49764975 </v>
   <v>       0.36964002       0.13038405       0.37442002 </v>
   <v>       0.87543041       0.12253315       0.37025535 </v>
   <v>       0.38256917       0.62753024       0.36223418 </v>
   <v>       0.88202645       0.60522387       0.38786399 </v>
   <v>       0.37353982       0.12749836       0.88011918 </v>
   <v>       0.88325772       0.13324081       0.88491039 </v>
   <v>       0.37020324       0.61809910       0.87515468 </v>
   <v>       0.86849156       0.62694418       0.87263614 </v>
   <v>       0.00483025       0.24642898       0.23414509 </v>
   <v>       0.50238783       0.24883739       0.24624260 </v>
   <v>       0.98942339       0.73622094       0.25309471 </v>
   <v>       0.50973373       0.75095329       0.24901558 </v>
   <v>       0.99855553       0.24626209       0.74860507 </v>
   <v>       0.50286502       0.23645507       0.75479838 </v>
   <v>       0.99161912       0.75556474       0.74086492 </v>
   <v>       0.49259172       0.74839118       0.74817921 </v>
   <v>       0.37601529       0.37378118       0.12287602 </v>
   <v>       0.87249649       0.37420316       0.12070595 </v>
   <v>       0.38078465       0.87732726       0.12741958 </v>
   <v>       0.87469696       0.88622279       0.13264931 </v>
   <v>       0.37861976       0.37553569       0.61881451 </v>
   <v>       0.86594472       0.37720384       0.63233111 </v>
   <v>       0.36895545       0.88064951       0.64112286 </v>
   <v>       0.86317805       0.88226642       0.61388891 </v>
   <v>       0.25499902       0.00022229       0.25379305 </v>
   <v>       0.74118559       0.00678872       0.26238243 </v>
   <v>       0.24740523       0.50550946       0.24518395 </v>
   <v>       0.74175292       0.49432647       0.24153574 </v>
   <v>       0.24143253       0.00080241       0.75635477 </v>
   <v>       0.74765048       0.00890643       0.74880217 </v>
   <v>       0.25658406       0.50740425       0.74941932 </v>
   <v>       0.75546973       0.50546771       0.75604032 </v>
   <v>       0.13477844       0.12409744       0.12186455 </v>
   <v>       0.61942767       0.12528637       0.12640792 </v>
   <v>       0.11713639       0.62619817       0.11877025 </v>
   <v>       0.62967359       0.62739232       0.12710156 </v>
   <v>       0.11374928       0.12151172       0.61457283 </v>
   <v>       0.62454165       0.13529222       0.61157764 </v>
   <v>       0.13231015       0.62597833       0.62266085 </v>
   <v>       0.62861847       0.62640147       0.63211765 </v>
   <v>       0.25148783       0.25527935       0.00559475 </v>
   <v>       0.74647342       0.24712473       0.00332457 </v>
   <v>       0.25131422       0.74216623       0.00283952 </v>
   <v>       0.76138821       0.76019134       0.00963858 </v>
   <v>       0.25055452       0.24935944       0.49892735 </v>
   <v>       0.76157522       0.24982127       0.49556069 </v>
   <v>       0.26333530       0.74839656       0.50019515 </v>
   <v>       0.75247053       0.74873556       0.49266960 </v>
   <v>       0.12640778       0.36931229       0.37158565 </v>
   <v>       0.61669658       0.38451132       0.38070750 </v>
   <v>       0.12728789       0.86032310       0.37037931 </v>
   <v>       0.61238174       0.87523917       0.38207973 </v>
   <v>       0.12935152       0.37726306       0.86841954 </v>
   <v>       0.61644881       0.37795323       0.87436917 </v>
   <v>       0.12512473       0.87235630       0.87974820 </v>
   <v>       0.63400171       0.86169961       0.86510357 </v>
  </varray>
  <varray name="velocities" >
   <v>       0.00100256       0.00034497       0.00127369 </v>
   <v>       0.00129167       0.00023107      -0.00072202 </v>
   <v>      -0.00164971      -0.00140004       0.00026501 </v>
   <v>      -0.00029941      -0.00062822       0.00006202 </v>
   <v>       0.00044933      -0.00213315      -0.00153067 </v>
   <v>      -0.00066317       0.00266121       0.00016414 </v>
   <v>       0.00025468      -0.00170867       0.00020307 </v>
   <v>      -0.00028189      -0.00039846      -0.00196215 </v>
   <v>       0.00040842       0.00011259       0.00077109 </v>
   <v>       0.00001384      -0.00052357      -0.00025728 </v>
   <v>       0.00074733      -0.00104453      -0.00056575 </v>
   <v>      -0.00034843      -0.00159372       0.00266985 </v>
   <v>       0.00105590       0.00024501      -0.00023979 </v>
   <v>      -0.00145897       0.00054940       0.00117488 </v>
   <v>      -0.00097558      -0.00094582      -0.00051906 </v>
   <v>      -0.00100012       0.00055007       0.00000497 </v>
   <v>       0.00078685       0.00107038      -0.00119279 </v>
   <v>       0.00138893       0.00040086       0.00100201 </v>
   <v>      -0.00143447      -0.00113229       0.00088190 </v>
   <v>       0.00115454      -0.00075221      -0.00005294 </v>
   <v>       0.00063672       0.00019825      -0.00030578 </v>
   <v>       0.00028805      -0.00112057       0.00035862 </v>
   <v>      -0.00031091       0.00135049      -0.00127587 </v>
   <v>      -0.00011601       0.00060163       0.00053751 </v>
   <v>      -0.00081448       0.00114331       0.00074962 </v>
   <v>      -0.00091012       0.00010269      -0.00062159 </v>
   <v>       0.00064158      -0.00010707      -0.00054766 </v>
   <v>      -0.00031950       0.00158676       0.00200681 </v>
   <v>       0.00078244       0.00067579      -0.00036539 </v>
   <v>      -0.00070548       0.00093407       0.00100460 </v>
   <v>      -0.00064814       0.00041725       0.00291329 </v>
   <v>      -0.00112176       0.00106661      -0.00010019 </v>
   <v>       0.00019412      -0.00156389       0.00130993 </v>
   <v>      -0.00117785      -0.00117545       0.00107967 </v>
   <v>       0.00117935      -0.00044092       0.00021158 </v>
   <v>      -0.00082545      -0.00009368      -0.00018332 </v>
   <v>      -0.00097423      -0.00149587       0.00225114 </v>
   <v>       0.00064658      -0.00057611       0.00078103 </v>
   <v>       0.00102854       0.00005529       0.00055862 </v>
   <v>      -0.00008375       0.00024802       0.00120269 </v>
   <v>       0.00067697       0.00015614      -0.00206262 </v>
   <v>      -0.00110488       0.00153592      -0.00119223 </v>
   <v>      -0.00138403       0.00094596       0.00137681 </v>
   <v>       0.00166214       0.00087175       0.00100319 </v>
   <v>      -0.00005086       0.00008204      -0.00033566 </v>
   <v>      -0.00029775       0.00282217      -0.00063561 </v>
   <v>       0.00047876      -0.00010974       0.00040972 </v>
   <v>      -0.00011355       0.00030655      -0.00004133 </v>
   <v>       0.00079243       0.00108995      -0.00065205 </v>
   <v>      -0.00085131      -0.00019256       0.00006549 </v>
   <v>      -0.00062951       0.00004199      -0.00115363 </v>
   <v>       0.00017443       0.00169701       0.00069092 </v>
   <v>       0.00082746      -0.00031187      -0.00121566 </v>
   <v>      -0.00055290       0.00058657      -0.00038969 </v>
   <v>       0.00009345      -0.00127338      -0.00090202 </v>
   <v>       0.00105787      -0.00051519      -0.00089311 </v>
   <v>       0.00058187      -0.00095924      -0.00040062 </v>
   <v>      -0.00114346      -0.00029581      -0.00092034 </v>
   <v>      -0.00014537      -0.00225454      -0.00208101 </v>
   <v>      -0.00033871       0.00006204      -0.00078366 </v>
   <v>       0.00154963      -0.00033488      -0.00025857 </v>
   <v>      -0.00079573      -0.00121370      -0.00090771 </v>
   <v>      -0.00007926       0.00076979      -0.00071423 </v>
   <v>       0.00176033       0.00078156      -0.00100185 </v>
  </varray>
 </structure>
</modeling>
