  64  64   0   0
  0.2002283E+02  0.1086180E-08  0.1086180E-08  0.1086180E-08  0.3000000E-14
   600.00000000000000     
  CAR 
 si_2x2x2                                
      9.72325563     -7.22271308  301      6.09668659      1.00000000
     -7.223  0.0000E+00  0.0000E+00
     -7.166  0.0000E+00  0.0000E+00
     -7.110  0.0000E+00  0.0000E+00
     -7.053  0.0000E+00  0.0000E+00
     -6.997  0.0000E+00  0.0000E+00
     -6.940  0.0000E+00  0.0000E+00
     -6.884  0.0000E+00  0.0000E+00
     -6.827  0.0000E+00  0.0000E+00
     -6.771  0.1497E-12  0.8445E-14
     -6.714  0.5888E-10  0.3331E-11
     -6.658  0.1240E-07  0.7031E-09
     -6.601  0.1400E-05  0.7968E-07
     -6.545  0.8485E-04  0.4867E-05
     -6.488  0.2771E-02  0.1612E-03
     -6.432  0.4890E-01  0.2920E-02
     -6.375  0.4681E+00  0.2932E-01
     -6.319  0.2438E+01  0.1668E+00
     -6.262  0.6935E+01  0.5579E+00
     -6.206  0.1079E+02  0.1167E+01
     -6.149  0.9209E+01  0.1686E+01
     -6.093  0.4307E+01  0.1928E+01
     -6.036  0.1103E+01  0.1991E+01
     -5.980  0.1545E+00  0.1999E+01
     -5.924  0.1180E-01  0.2000E+01
     -5.867  0.4908E-03  0.2000E+01
     -5.811  0.1109E-04  0.2000E+01
     -5.754  0.8051E-06  0.2000E+01
     -5.698  0.3079E-04  0.2000E+01
     -5.641  0.7962E-03  0.2000E+01
     -5.585  0.1186E-01  0.2001E+01
     -5.528  0.1060E+00  0.2007E+01
     -5.472  0.6043E+00  0.2041E+01
     -5.415  0.2370E+01  0.2174E+01
     -5.359  0.6768E+01  0.2555E+01
     -5.302  0.1433E+02  0.3363E+01
     -5.246  0.2280E+02  0.4649E+01
     -5.189  0.2857E+02  0.6260E+01
     -5.133  0.3061E+02  0.7987E+01
     -5.076  0.3037E+02  0.9700E+01
     -5.020  0.2792E+02  0.1127E+02
     -4.963  0.2206E+02  0.1252E+02
     -4.907  0.1411E+02  0.1331E+02
     -4.850  0.7240E+01  0.1372E+02
     -4.794  0.3158E+01  0.1390E+02
     -4.737  0.1265E+01  0.1397E+02
     -4.681  0.4677E+00  0.1400E+02
     -4.624  0.3269E+00  0.1401E+02
     -4.568  0.9330E+00  0.1407E+02
     -4.511  0.3025E+01  0.1424E+02
     -4.455  0.8120E+01  0.1469E+02
     -4.398  0.1705E+02  0.1566E+02
     -4.342  0.2809E+02  0.1724E+02
     -4.285  0.3827E+02  0.1940E+02
     -4.229  0.4545E+02  0.2196E+02
     -4.172  0.4905E+02  0.2473E+02
     -4.116  0.5000E+02  0.2755E+02
     -4.059  0.4853E+02  0.3029E+02
     -4.003  0.4461E+02  0.3280E+02
     -3.946  0.4029E+02  0.3507E+02
     -3.890  0.3786E+02  0.3721E+02
     -3.834  0.3701E+02  0.3929E+02
     -3.777  0.3532E+02  0.4129E+02
     -3.721  0.3021E+02  0.4299E+02
     -3.664  0.2170E+02  0.4421E+02
     -3.608  0.1320E+02  0.4496E+02
     -3.551  0.7698E+01  0.4539E+02
     -3.495  0.4995E+01  0.4567E+02
     -3.438  0.3319E+01  0.4586E+02
     -3.382  0.1766E+01  0.4596E+02
     -3.325  0.6323E+00  0.4599E+02
     -3.269  0.1395E+00  0.4600E+02
     -3.212  0.1815E-01  0.4600E+02
     -3.156  0.1356E-02  0.4600E+02
     -3.099  0.5719E-04  0.4600E+02
     -3.043  0.1345E-05  0.4600E+02
     -2.986  0.1747E-07  0.4600E+02
     -2.930  0.1245E-09  0.4600E+02
     -2.873  0.4839E-12  0.4600E+02
     -2.817  0.9207E-13  0.4600E+02
     -2.760  0.2840E-10  0.4600E+02
     -2.704  0.4796E-08  0.4600E+02
     -2.647  0.4432E-06  0.4600E+02
     -2.591  0.2275E-04  0.4600E+02
     -2.534  0.6641E-03  0.4600E+02
     -2.478  0.1141E-01  0.4600E+02
     -2.421  0.1205E+00  0.4601E+02
     -2.365  0.8156E+00  0.4605E+02
     -2.308  0.3637E+01  0.4626E+02
     -2.252  0.1089E+02  0.4687E+02
     -2.195  0.2257E+02  0.4815E+02
     -2.139  0.3472E+02  0.5010E+02
     -2.082  0.4402E+02  0.5259E+02
     -2.026  0.5123E+02  0.5548E+02
     -1.969  0.5816E+02  0.5876E+02
     -1.913  0.6376E+02  0.6235E+02
     -1.856  0.6558E+02  0.6605E+02
     -1.800  0.6358E+02  0.6964E+02
     -1.744  0.5872E+02  0.7295E+02
     -1.687  0.5051E+02  0.7580E+02
     -1.631  0.3948E+02  0.7802E+02
     -1.574  0.2838E+02  0.7962E+02
     -1.518  0.1926E+02  0.8070E+02
     -1.461  0.1234E+02  0.8140E+02
     -1.405  0.8105E+01  0.8185E+02
     -1.348  0.8230E+01  0.8232E+02
     -1.292  0.1311E+02  0.8306E+02
     -1.235  0.1959E+02  0.8416E+02
     -1.179  0.2368E+02  0.8550E+02
     -1.122  0.2412E+02  0.8686E+02
     -1.066  0.2130E+02  0.8806E+02
     -1.009  0.1607E+02  0.8897E+02
     -0.953  0.9979E+01  0.8953E+02
     -0.896  0.5048E+01  0.8981E+02
     -0.840  0.2201E+01  0.8993E+02
     -0.783  0.8502E+00  0.8998E+02
     -0.727  0.2563E+00  0.9000E+02
     -0.670  0.5113E-01  0.9000E+02
     -0.614  0.6116E-02  0.9000E+02
     -0.557  0.4194E-03  0.9000E+02
     -0.501  0.1613E-04  0.9000E+02
     -0.444  0.3436E-06  0.9000E+02
     -0.388  0.4117E-08  0.9000E+02
     -0.331  0.1531E-07  0.9000E+02
     -0.275  0.1380E-05  0.9000E+02
     -0.218  0.7014E-04  0.9000E+02
     -0.162  0.2032E-02  0.9000E+02
     -0.105  0.3404E-01  0.9000E+02
     -0.049  0.3359E+00  0.9002E+02
      0.008  0.2001E+01  0.9013E+02
      0.064  0.7473E+01  0.9056E+02
      0.121  0.1859E+02  0.9160E+02
      0.177  0.3348E+02  0.9349E+02
      0.234  0.4775E+02  0.9619E+02
      0.290  0.5740E+02  0.9943E+02
      0.346  0.6030E+02  0.1028E+03
      0.403  0.5684E+02  0.1060E+03
      0.459  0.4868E+02  0.1088E+03
      0.516  0.3758E+02  0.1109E+03
      0.572  0.2563E+02  0.1123E+03
      0.629  0.1521E+02  0.1132E+03
      0.685  0.8028E+01  0.1136E+03
      0.742  0.3935E+01  0.1139E+03
      0.798  0.1702E+01  0.1140E+03
      0.855  0.5574E+00  0.1140E+03
      0.911  0.1209E+00  0.1140E+03
      0.968  0.1602E-01  0.1140E+03
      1.024  0.1240E-02  0.1140E+03
      1.081  0.5446E-04  0.1140E+03
      1.137  0.1335E-05  0.1140E+03
      1.194  0.2405E-07  0.1140E+03
      1.250  0.5896E-06  0.1140E+03
      1.307  0.3237E-04  0.1140E+03
      1.363  0.1013E-02  0.1140E+03
      1.420  0.1855E-01  0.1140E+03
      1.476  0.2047E+00  0.1140E+03
      1.533  0.1412E+01  0.1141E+03
      1.589  0.6330E+01  0.1144E+03
      1.646  0.1916E+02  0.1155E+03
      1.702  0.4093E+02  0.1178E+03
      1.759  0.6536E+02  0.1215E+03
      1.815  0.8396E+02  0.1263E+03
      1.872  0.9353E+02  0.1315E+03
      1.928  0.9591E+02  0.1370E+03
      1.985  0.9435E+02  0.1423E+03
      2.041  0.8982E+02  0.1473E+03
      2.098  0.8039E+02  0.1519E+03
      2.154  0.6646E+02  0.1556E+03
      2.211  0.5370E+02  0.1586E+03
      2.267  0.4734E+02  0.1613E+03
      2.324  0.4620E+02  0.1639E+03
      2.380  0.4497E+02  0.1665E+03
      2.436  0.4052E+02  0.1687E+03
      2.493  0.3365E+02  0.1706E+03
      2.549  0.2579E+02  0.1721E+03
      2.606  0.1766E+02  0.1731E+03
      2.662  0.1020E+02  0.1736E+03
      2.719  0.5023E+01  0.1739E+03
      2.775  0.4082E+01  0.1742E+03
      2.832  0.9318E+01  0.1747E+03
      2.888  0.2095E+02  0.1759E+03
      2.945  0.3406E+02  0.1778E+03
      3.001  0.4091E+02  0.1801E+03
      3.058  0.3867E+02  0.1823E+03
      3.114  0.3015E+02  0.1840E+03
      3.171  0.1953E+02  0.1851E+03
      3.227  0.1033E+02  0.1857E+03
      3.284  0.4342E+01  0.1859E+03
      3.340  0.1385E+01  0.1860E+03
      3.397  0.3126E+00  0.1860E+03
      3.453  0.5125E-01  0.1860E+03
      3.510  0.7466E-01  0.1860E+03
      3.566  0.5845E+00  0.1860E+03
      3.623  0.2975E+01  0.1862E+03
      3.679  0.9773E+01  0.1868E+03
      3.736  0.2214E+02  0.1880E+03
      3.792  0.3737E+02  0.1901E+03
      3.849  0.5057E+02  0.1930E+03
      3.905  0.5801E+02  0.1962E+03
      3.962  0.5842E+02  0.1995E+03
      4.018  0.5284E+02  0.2025E+03
      4.075  0.4400E+02  0.2050E+03
      4.131  0.3462E+02  0.2069E+03
      4.188  0.2710E+02  0.2085E+03
      4.244  0.2436E+02  0.2098E+03
      4.301  0.2857E+02  0.2115E+03
      4.357  0.3882E+02  0.2136E+03
      4.414  0.5076E+02  0.2165E+03
      4.470  0.5994E+02  0.2199E+03
      4.526  0.6541E+02  0.2236E+03
      4.583  0.6805E+02  0.2274E+03
      4.639  0.6839E+02  0.2313E+03
      4.696  0.6682E+02  0.2351E+03
      4.752  0.6243E+02  0.2386E+03
      4.809  0.5426E+02  0.2416E+03
      4.865  0.4348E+02  0.2441E+03
      4.922  0.3268E+02  0.2459E+03
      4.978  0.2366E+02  0.2472E+03
      5.035  0.1696E+02  0.2482E+03
      5.091  0.1226E+02  0.2489E+03
      5.148  0.8515E+01  0.2494E+03
      5.204  0.5244E+01  0.2497E+03
      5.261  0.2853E+01  0.2498E+03
      5.317  0.1538E+01  0.2499E+03
      5.374  0.9064E+00  0.2500E+03
      5.430  0.4928E+00  0.2500E+03
      5.487  0.2047E+00  0.2500E+03
      5.543  0.1859E+00  0.2500E+03
      5.600  0.8498E+00  0.2501E+03
      5.656  0.3159E+01  0.2502E+03
      5.713  0.7723E+01  0.2507E+03
      5.769  0.1302E+02  0.2514E+03
      5.826  0.1614E+02  0.2523E+03
      5.882  0.1620E+02  0.2532E+03
      5.939  0.1458E+02  0.2541E+03
      5.995  0.1215E+02  0.2547E+03
      6.052  0.9670E+01  0.2553E+03
      6.108  0.8791E+01  0.2558E+03
      6.165  0.1124E+02  0.2564E+03
      6.221  0.1792E+02  0.2574E+03
      6.278  0.2725E+02  0.2590E+03
      6.334  0.3424E+02  0.2609E+03
      6.391  0.3437E+02  0.2628E+03
      6.447  0.2885E+02  0.2645E+03
      6.504  0.2233E+02  0.2657E+03
      6.560  0.1736E+02  0.2667E+03
      6.616  0.1512E+02  0.2675E+03
      6.673  0.1759E+02  0.2685E+03
      6.729  0.2555E+02  0.2700E+03
      6.786  0.3542E+02  0.2720E+03
      6.842  0.4056E+02  0.2743E+03
      6.899  0.3752E+02  0.2764E+03
      6.955  0.2886E+02  0.2780E+03
      7.012  0.1924E+02  0.2791E+03
      7.068  0.1288E+02  0.2798E+03
      7.125  0.1416E+02  0.2806E+03
      7.181  0.2375E+02  0.2820E+03
      7.238  0.3338E+02  0.2838E+03
      7.294  0.3303E+02  0.2857E+03
      7.351  0.2315E+02  0.2870E+03
      7.407  0.1177E+02  0.2877E+03
      7.464  0.4423E+01  0.2879E+03
      7.520  0.1269E+01  0.2880E+03
      7.577  0.2842E+00  0.2880E+03
      7.633  0.8243E-01  0.2880E+03
      7.690  0.2414E+00  0.2880E+03
      7.746  0.1087E+01  0.2881E+03
      7.803  0.3869E+01  0.2883E+03
      7.859  0.1070E+02  0.2889E+03
      7.916  0.2280E+02  0.2902E+03
      7.972  0.3799E+02  0.2923E+03
      8.029  0.5170E+02  0.2952E+03
      8.085  0.6079E+02  0.2987E+03
      8.142  0.6447E+02  0.3023E+03
      8.198  0.6277E+02  0.3059E+03
      8.255  0.5644E+02  0.3090E+03
      8.311  0.4769E+02  0.3117E+03
      8.368  0.3855E+02  0.3139E+03
      8.424  0.2934E+02  0.3155E+03
      8.481  0.2062E+02  0.3167E+03
      8.537  0.1421E+02  0.3175E+03
      8.594  0.1247E+02  0.3182E+03
      8.650  0.1612E+02  0.3191E+03
      8.706  0.2026E+02  0.3203E+03
      8.763  0.1771E+02  0.3213E+03
      8.819  0.9548E+01  0.3218E+03
      8.876  0.3013E+01  0.3220E+03
      8.932  0.5404E+00  0.3220E+03
      8.989  0.5404E-01  0.3220E+03
      9.045  0.2975E-02  0.3220E+03
      9.102  0.8934E-04  0.3220E+03
      9.158  0.1454E-05  0.3220E+03
      9.215  0.1276E-07  0.3220E+03
      9.271  0.6016E-10  0.3220E+03
      9.328  0.1518E-12  0.3220E+03
      9.384  0.0000E+00  0.3220E+03
      9.441  0.0000E+00  0.3220E+03
      9.497  0.0000E+00  0.3220E+03
      9.554  0.0000E+00  0.3220E+03
      9.610  0.0000E+00  0.3220E+03
      9.667  0.0000E+00  0.3220E+03
      9.723  0.0000E+00  0.3220E+03
      9.72234894     -7.22331956  301      6.08998695      1.00000000
     -7.223  0.0000E+00  0.0000E+00
     -7.167  0.0000E+00  0.0000E+00
     -7.110  0.0000E+00  0.0000E+00
     -7.054  0.0000E+00  0.0000E+00
     -6.997  0.0000E+00  0.0000E+00
     -6.941  0.0000E+00  0.0000E+00
     -6.884  0.0000E+00  0.0000E+00
     -6.828  0.0000E+00  0.0000E+00
     -6.771  0.1612E-14  0.9104E-16
     -6.715  0.6328E-12  0.3584E-13
     -6.658  0.1332E-09  0.7561E-11
     -6.602  0.1501E-07  0.8554E-09
     -6.545  0.9069E-06  0.5208E-07
     -6.489  0.2947E-04  0.1717E-05
     -6.433  0.5168E-03  0.3091E-04
     -6.376  0.4904E-02  0.3079E-03
     -6.320  0.2527E-01  0.1735E-02
     -6.263  0.7091E-01  0.5741E-02
     -6.207  0.1085E+00  0.1187E-01
     -6.150  0.9072E-01  0.1700E-01
     -6.094  0.4139E-01  0.1933E-01
     -6.037  0.1029E-01  0.1992E-01
     -5.981  0.1391E-02  0.1999E-01
     -5.924  0.1019E-03  0.2000E-01
     -5.868  0.4034E-05  0.2000E-01
     -5.811  0.8598E-07  0.2000E-01
     -5.755  0.9926E-09  0.2000E-01
     -5.698  0.1410E-08  0.2000E-01
     -5.642  0.1222E-06  0.2000E-01
     -5.585  0.5774E-05  0.2000E-01
     -5.529  0.1489E-03  0.2001E-01
     -5.472  0.2115E-02  0.2013E-01
     -5.416  0.1673E-01  0.2107E-01
     -5.359  0.7481E-01  0.2530E-01
     -5.303  0.1929E+00  0.3620E-01
     -5.246  0.2944E+00  0.5283E-01
     -5.190  0.2785E+00  0.6856E-01
     -5.133  0.1984E+00  0.7977E-01
     -5.077  0.1936E+00  0.9070E-01
     -5.020  0.2622E+00  0.1055E+00
     -4.964  0.2790E+00  0.1213E+00
     -4.907  0.2011E+00  0.1326E+00
     -4.851  0.9595E-01  0.1381E+00
     -4.794  0.2883E-01  0.1397E+00
     -4.738  0.5134E-02  0.1400E+00
     -4.681  0.5469E-03  0.1400E+00
     -4.625  0.5798E-03  0.1400E+00
     -4.568  0.5859E-02  0.1404E+00
     -4.512  0.3546E-01  0.1424E+00
     -4.456  0.1250E+00  0.1494E+00
     -4.399  0.2656E+00  0.1644E+00
     -4.343  0.3633E+00  0.1850E+00
     -4.286  0.3735E+00  0.2060E+00
     -4.230  0.3683E+00  0.2269E+00
     -4.173  0.3939E+00  0.2491E+00
     -4.117  0.4181E+00  0.2727E+00
     -4.060  0.4070E+00  0.2957E+00
     -4.004  0.3994E+00  0.3183E+00
     -3.947  0.4234E+00  0.3422E+00
     -3.891  0.4233E+00  0.3661E+00
     -3.834  0.3807E+00  0.3876E+00
     -3.778  0.3354E+00  0.4065E+00
     -3.721  0.2984E+00  0.4234E+00
     -3.665  0.2529E+00  0.4377E+00
     -3.608  0.1958E+00  0.4487E+00
     -3.552  0.1259E+00  0.4558E+00
     -3.495  0.5602E-01  0.4590E+00
     -3.439  0.1500E-01  0.4599E+00
     -3.382  0.2266E-02  0.4600E+00
     -3.326  0.1880E-03  0.4600E+00
     -3.269  0.8465E-05  0.4600E+00
     -3.213  0.2057E-06  0.4600E+00
     -3.156  0.2688E-08  0.4600E+00
     -3.100  0.1882E-10  0.4600E+00
     -3.043  0.7044E-13  0.4600E+00
     -2.987  0.1572E-15  0.4600E+00
     -2.930  0.0000E+00  0.4600E+00
     -2.874  0.0000E+00  0.4600E+00
     -2.817  0.0000E+00  0.4600E+00
     -2.761  0.3322E-14  0.4600E+00
     -2.704  0.1219E-11  0.4600E+00
     -2.648  0.2389E-09  0.4600E+00
     -2.592  0.2510E-07  0.4600E+00
     -2.535  0.1419E-05  0.4600E+00
     -2.479  0.4347E-04  0.4600E+00
     -2.422  0.7289E-03  0.4600E+00
     -2.366  0.6811E-02  0.4604E+00
     -2.309  0.3655E-01  0.4625E+00
     -2.253  0.1180E+00  0.4692E+00
     -2.196  0.2438E+00  0.4829E+00
     -2.140  0.3538E+00  0.5029E+00
     -2.083  0.4238E+00  0.5268E+00
     -2.027  0.4908E+00  0.5546E+00
     -1.970  0.5410E+00  0.5851E+00
     -1.914  0.5749E+00  0.6176E+00
     -1.857  0.6436E+00  0.6540E+00
     -1.801  0.6796E+00  0.6923E+00
     -1.744  0.6205E+00  0.7274E+00
     -1.688  0.5542E+00  0.7587E+00
     -1.631  0.4924E+00  0.7865E+00
     -1.575  0.3523E+00  0.8064E+00
     -1.518  0.1740E+00  0.8162E+00
     -1.462  0.5953E-01  0.8196E+00
     -1.405  0.3439E-01  0.8215E+00
     -1.349  0.7127E-01  0.8256E+00
     -1.292  0.1226E+00  0.8325E+00
     -1.236  0.1574E+00  0.8414E+00
     -1.179  0.2082E+00  0.8531E+00
     -1.123  0.2698E+00  0.8684E+00
     -1.066  0.2666E+00  0.8834E+00
     -1.010  0.1829E+00  0.8938E+00
     -0.953  0.8288E-01  0.8984E+00
     -0.897  0.2327E-01  0.8998E+00
     -0.840  0.3819E-02  0.9000E+00
     -0.784  0.3528E-03  0.9000E+00
     -0.727  0.1795E-04  0.9000E+00
     -0.671  0.4965E-06  0.9000E+00
     -0.615  0.7416E-08  0.9000E+00
     -0.558  0.5950E-10  0.9000E+00
     -0.502  0.2556E-12  0.9000E+00
     -0.445  0.6290E-15  0.9000E+00
     -0.389  0.3056E-13  0.9000E+00
     -0.332  0.9362E-11  0.9000E+00
     -0.276  0.1540E-08  0.9000E+00
     -0.219  0.1364E-06  0.9000E+00
     -0.163  0.6530E-05  0.9000E+00
     -0.106  0.1698E-03  0.9000E+00
     -0.050  0.2419E-02  0.9001E+00
      0.007  0.1910E-01  0.9012E+00
      0.063  0.8553E-01  0.9061E+00
      0.120  0.2261E+00  0.9188E+00
      0.176  0.3789E+00  0.9402E+00
      0.233  0.4557E+00  0.9660E+00
      0.289  0.4795E+00  0.9931E+00
      0.346  0.5346E+00  0.1023E+01
      0.402  0.6147E+00  0.1058E+01
      0.459  0.6127E+00  0.1093E+01
      0.515  0.4661E+00  0.1119E+01
      0.572  0.2535E+00  0.1133E+01
      0.628  0.9398E-01  0.1139E+01
      0.685  0.2238E-01  0.1140E+01
      0.741  0.3219E-02  0.1140E+01
      0.798  0.2666E-03  0.1140E+01
      0.854  0.1233E-04  0.1140E+01
      0.911  0.3128E-06  0.1140E+01
      0.967  0.4302E-08  0.1140E+01
      1.024  0.3187E-10  0.1140E+01
      1.080  0.1265E-12  0.1140E+01
      1.137  0.4580E-14  0.1140E+01
      1.193  0.1564E-11  0.1140E+01
      1.250  0.3047E-09  0.1140E+01
      1.306  0.3204E-07  0.1140E+01
      1.362  0.1830E-05  0.1140E+01
      1.419  0.5733E-04  0.1140E+01
      1.475  0.9974E-03  0.1140E+01
      1.532  0.9820E-02  0.1141E+01
      1.588  0.5624E-01  0.1144E+01
      1.645  0.1951E+00  0.1155E+01
      1.701  0.4351E+00  0.1179E+01
      1.758  0.6791E+00  0.1218E+01
      1.814  0.8277E+00  0.1265E+01
      1.871  0.8866E+00  0.1315E+01
      1.927  0.9250E+00  0.1367E+01
      1.984  0.9658E+00  0.1421E+01
      2.040  0.9654E+00  0.1476E+01
      2.097  0.8997E+00  0.1527E+01
      2.153  0.7585E+00  0.1570E+01
      2.210  0.5523E+00  0.1601E+01
      2.266  0.3854E+00  0.1623E+01
      2.323  0.3697E+00  0.1643E+01
      2.379  0.4490E+00  0.1669E+01
      2.436  0.4828E+00  0.1696E+01
      2.492  0.4072E+00  0.1719E+01
      2.549  0.2465E+00  0.1733E+01
      2.605  0.9718E-01  0.1738E+01
      2.662  0.2338E-01  0.1740E+01
      2.718  0.4174E-02  0.1740E+01
      2.775  0.9487E-02  0.1741E+01
      2.831  0.5359E-01  0.1744E+01
      2.888  0.1814E+00  0.1754E+01
      2.944  0.3774E+00  0.1775E+01
      3.001  0.5186E+00  0.1804E+01
      3.057  0.4953E+00  0.1832E+01
      3.114  0.3209E+00  0.1851E+01
      3.170  0.1310E+00  0.1858E+01
      3.227  0.3153E-01  0.1860E+01
      3.283  0.4305E-02  0.1860E+01
      3.339  0.3262E-03  0.1860E+01
      3.396  0.1406E-04  0.1860E+01
      3.452  0.1920E-04  0.1860E+01
      3.509  0.3897E-03  0.1860E+01
      3.565  0.4510E-02  0.1860E+01
      3.622  0.2999E-01  0.1862E+01
      3.678  0.1185E+00  0.1869E+01
      3.735  0.2895E+00  0.1885E+01
      3.791  0.4581E+00  0.1911E+01
      3.848  0.5060E+00  0.1939E+01
      3.904  0.4686E+00  0.1966E+01
      3.961  0.4724E+00  0.1993E+01
      4.017  0.5098E+00  0.2021E+01
      4.074  0.4945E+00  0.2049E+01
      4.130  0.4243E+00  0.2073E+01
      4.187  0.3383E+00  0.2092E+01
      4.243  0.2764E+00  0.2108E+01
      4.300  0.2913E+00  0.2124E+01
      4.356  0.3992E+00  0.2147E+01
      4.413  0.5602E+00  0.2179E+01
      4.469  0.6788E+00  0.2217E+01
      4.526  0.6901E+00  0.2256E+01
      4.582  0.6385E+00  0.2292E+01
      4.639  0.6011E+00  0.2326E+01
      4.695  0.5869E+00  0.2359E+01
      4.752  0.5776E+00  0.2392E+01
      4.808  0.5635E+00  0.2424E+01
      4.865  0.4918E+00  0.2451E+01
      4.921  0.3645E+00  0.2472E+01
      4.978  0.2490E+00  0.2486E+01
      5.034  0.1534E+00  0.2495E+01
      5.091  0.6979E-01  0.2499E+01
      5.147  0.1983E-01  0.2500E+01
      5.204  0.3240E-02  0.2500E+01
      5.260  0.2939E-03  0.2500E+01
      5.316  0.1455E-04  0.2500E+01
      5.373  0.6679E-06  0.2500E+01
      5.429  0.1091E-04  0.2500E+01
      5.486  0.2307E-03  0.2500E+01
      5.542  0.2638E-02  0.2500E+01
      5.599  0.1637E-01  0.2501E+01
      5.655  0.5535E-01  0.2504E+01
      5.712  0.1032E+00  0.2510E+01
      5.768  0.1136E+00  0.2516E+01
      5.825  0.1031E+00  0.2522E+01
      5.881  0.1293E+00  0.2530E+01
      5.938  0.1724E+00  0.2539E+01
      5.994  0.1747E+00  0.2549E+01
      6.051  0.1286E+00  0.2556E+01
      6.107  0.8950E-01  0.2562E+01
      6.164  0.1184E+00  0.2568E+01
      6.220  0.1978E+00  0.2579E+01
      6.277  0.2644E+00  0.2594E+01
      6.333  0.2972E+00  0.2611E+01
      6.390  0.3098E+00  0.2629E+01
      6.446  0.2876E+00  0.2645E+01
      6.503  0.2181E+00  0.2657E+01
      6.559  0.1605E+00  0.2666E+01
      6.616  0.1433E+00  0.2674E+01
      6.672  0.1582E+00  0.2683E+01
      6.729  0.2530E+00  0.2698E+01
      6.785  0.4038E+00  0.2720E+01
      6.842  0.4820E+00  0.2748E+01
      6.898  0.4282E+00  0.2772E+01
      6.955  0.2908E+00  0.2788E+01
      7.011  0.1491E+00  0.2797E+01
      7.068  0.7306E-01  0.2801E+01
      7.124  0.1162E+00  0.2807E+01
      7.180  0.2794E+00  0.2823E+01
      7.237  0.4179E+00  0.2847E+01
      7.293  0.3581E+00  0.2867E+01
      7.350  0.1749E+00  0.2877E+01
      7.406  0.4836E-01  0.2880E+01
      7.463  0.7514E-02  0.2880E+01
      7.519  0.6502E-03  0.2880E+01
      7.576  0.3420E-04  0.2880E+01
      7.632  0.8512E-04  0.2880E+01
      7.689  0.1232E-02  0.2880E+01
      7.745  0.1008E-01  0.2881E+01
      7.802  0.4801E-01  0.2883E+01
      7.858  0.1422E+00  0.2891E+01
      7.915  0.2830E+00  0.2907E+01
      7.971  0.4019E+00  0.2930E+01
      8.028  0.4465E+00  0.2955E+01
      8.084  0.4862E+00  0.2983E+01
      8.141  0.5744E+00  0.3015E+01
      8.197  0.6104E+00  0.3050E+01
      8.254  0.5624E+00  0.3081E+01
      8.310  0.5097E+00  0.3110E+01
      8.367  0.4571E+00  0.3136E+01
      8.423  0.3741E+00  0.3157E+01
      8.480  0.2536E+00  0.3172E+01
      8.536  0.1397E+00  0.3179E+01
      8.593  0.1098E+00  0.3186E+01
      8.649  0.1540E+00  0.3194E+01
      8.706  0.1855E+00  0.3205E+01
      8.762  0.1538E+00  0.3213E+01
      8.819  0.8276E-01  0.3218E+01
      8.875  0.2696E-01  0.3220E+01
      8.932  0.5035E-02  0.3220E+01
      8.988  0.5222E-03  0.3220E+01
      9.045  0.2960E-04  0.3220E+01
      9.101  0.9084E-06  0.3220E+01
      9.157  0.1502E-07  0.3220E+01
      9.214  0.1333E-09  0.3220E+01
      9.270  0.6329E-12  0.3220E+01
      9.327  0.1612E-14  0.3220E+01
      9.383  0.0000E+00  0.3220E+01
      9.440  0.0000E+00  0.3220E+01
      9.496  0.0000E+00  0.3220E+01
      9.553  0.0000E+00  0.3220E+01
      9.609  0.0000E+00  0.3220E+01
      9.666  0.0000E+00  0.3220E+01
      9.722  0.0000E+00  0.3220E+01
