LAMMPS (29 Sep 2021 - Update 2)
  using 1 OpenMP thread(s) per MPI task

# ----------------------- set up calc -------------------------

### units
atom_style      atomic
units           metal

### periodicity
dimension       3
boundary        p p p
processors      * * *

### read structure
read_data	si_12x12x12.supercell
Reading data file ...
  orthogonal box = (0.0000000 0.0000000 0.0000000) to (65.172000 65.172000 65.172000)
  2 by 2 by 4 MPI processor grid
  reading atoms ...
  13824 atoms
  read_data CPU = 0.010 seconds

### potential
pair_style      tersoff
pair_coeff      * * SiCGe.tersoff Si(D)
Reading tersoff potential file SiCGe.tersoff with DATE: 2009-03-18

### timestep and temp
timestep        0.001
variable        T equal 300

### what to print and how often
thermo_style    custom step temp pe etotal press pxx pyy pzz lx ly lz fmax fnorm
thermo          500

dump            TRJ all custom 500 sim.lammpstrj id type x y z
dump_modify     TRJ sort id

# -------------------- equilibration ------------------------

### NVT thermalization
velocity        all create ${T} 123456 mom yes rot yes dist gaussian
velocity        all create 300 123456 mom yes rot yes dist gaussian
fix             NVT all nvt temp ${T} ${T} $(dt*100) tchain 10
fix             NVT all nvt temp 300 ${T} $(dt*100) tchain 10
fix             NVT all nvt temp 300 300 $(dt*100) tchain 10
fix             NVT all nvt temp 300 300 0.10000000000000000555 tchain 10
run             5000
Neighbor list info ...
  update every 1 steps, delay 10 steps, check yes
  max neighbors/atom: 2000, page size: 100000
  master list distance cutoff = 5
  ghost atom cutoff = 5
  binsize = 2.5, bins = 27 27 27
  1 neighbor lists, perpetual/occasional/extra = 1 0 0
  (1) pair tersoff, perpetual
      attributes: full, newton on
      pair build: full/bin/atomonly
      stencil: full/bin/3d
      bin: standard
Per MPI rank memory allocation (min/avg/max) = 4.498 | 4.498 | 4.498 Mbytes
Step Temp PotEng TotEng Press Pxx Pyy Pzz Lx Ly Lz Fmax Fnorm 
       0          300   -63999.495   -63463.467    2611.7864    2618.5834    2630.8791    2585.8967       65.172       65.172       65.172 7.7951534e-14 7.5121562e-12 
     500    174.10023   -63641.518   -63330.442     4111.894    4108.2989    4138.1759    4089.2072       65.172       65.172       65.172    2.1932808    107.86908 
    1000    231.11073   -63600.336   -63187.396    4632.3314    4655.5319    4647.4628    4593.9994       65.172       65.172       65.172    2.4267404    110.37799 
    1500    248.91869   -63501.945   -63057.186    5425.8875    5453.3472    5388.7592     5435.556       65.172       65.172       65.172    2.6799425    124.32426 
    2000    284.94141   -63471.141   -62962.019    5753.4467    5732.1626    5808.2339    5719.9435       65.172       65.172       65.172    2.6416983    127.58866 
    2500    303.75291   -63462.003   -62919.268    6221.2289    6188.6181    6271.6033    6203.4653       65.172       65.172       65.172    2.6181331    130.71146 
    3000    298.77846   -63458.281   -62924.435    6036.1637    6003.2057    6046.5349    6058.7505       65.172       65.172       65.172    2.6579932    129.65758 
    3500     313.4081   -63475.153   -62915.167    6015.1728      6042.02    5985.5043    6017.9942       65.172       65.172       65.172     2.759927    128.10822 
    4000    302.45931   -63452.888   -62912.465    5992.6757    5996.8514    5980.0853    6001.0904       65.172       65.172       65.172    2.7214656    129.74644 
    4500    301.98431   -63462.771   -62923.197    6006.7508    6073.9455    5975.7953    5970.5117       65.172       65.172       65.172     2.596396    129.25222 
    5000    289.81914    -63440.64   -62922.802    6086.8839    6068.2599    6045.1831    6147.2085       65.172       65.172       65.172    3.0430203    132.29324 
Loop time of 6.09891 on 16 procs for 5000 steps with 13824 atoms

Performance: 70.832 ns/day, 0.339 hours/ns, 819.819 timesteps/s
99.5% CPU use with 16 MPI tasks x 1 OpenMP threads

MPI task timing breakdown:
Section |  min time  |  avg time  |  max time  |%varavg| %total
---------------------------------------------------------------
Pair    | 3.1711     | 4.4969     | 5.8217     |  57.7 | 73.73
Neigh   | 0          | 0          | 0          |   0.0 |  0.00
Comm    | 0.17418    | 1.5005     | 2.8222     |  99.8 | 24.60
Output  | 0.010034   | 0.01004    | 0.010081   |   0.0 |  0.16
Modify  | 0.058435   | 0.064102   | 0.070489   |   1.6 |  1.05
Other   |            | 0.0274     |            |       |  0.45

Nlocal:        864.000 ave         864 max         864 min
Histogram: 16 0 0 0 0 0 0 0 0 0
Nghost:        1428.00 ave        1428 max        1428 min
Histogram: 16 0 0 0 0 0 0 0 0 0
Neighs:         0.00000 ave           0 max           0 min
Histogram: 16 0 0 0 0 0 0 0 0 0
FullNghs:      24192.0 ave       24192 max       24192 min
Histogram: 16 0 0 0 0 0 0 0 0 0

Total # of neighbors = 387072
Ave neighs/atom = 28.000000
Neighbor list builds = 0
Dangerous builds = 0
unfix           NVT

### NVE equlibration (de-correlate from thermostats)
fix             NVE all nve
run             5000
Per MPI rank memory allocation (min/avg/max) = 4.498 | 4.498 | 4.498 Mbytes
Step Temp PotEng TotEng Press Pxx Pyy Pzz Lx Ly Lz Fmax Fnorm 
    5000    289.81914    -63440.64   -62922.802    6086.8839    6068.2599    6045.1831    6147.2085       65.172       65.172       65.172    3.0430203    132.29324 
    5500    296.17181   -63452.012   -62922.823    6055.7393    6063.7644     6029.625    6073.8286       65.172       65.172       65.172    3.1202668    130.39354 
    6000    300.02334     -63458.9   -62922.829     6099.314    6091.5975    6140.0339    6066.3108       65.172       65.172       65.172    2.4822548    129.87851 
    6500     302.5094   -63463.349   -62922.836    5995.1898    6007.9721    5976.3774    6001.2199       65.172       65.172       65.172    2.7785414    129.34924 
    7000    309.36912   -63475.619   -62922.849    6098.7347    6107.7436    6108.2407    6080.2198       65.172       65.172       65.172    2.5087946    127.99574 
    7500    299.68233   -63458.292   -62922.831    5987.9393     6045.366    5975.4794    5942.9724       65.172       65.172       65.172    2.7095499    129.69605 
    8000     297.4117   -63454.233   -62922.829    6032.1086    5990.0937    6042.9675    6063.2648       65.172       65.172       65.172    2.7185845    130.13644 
    8500    297.95843   -63455.212   -62922.831    5995.5457    6017.6363    6019.0535    5949.9475       65.172       65.172       65.172    2.6300295     129.7514 
    9000    295.51785   -63450.851   -62922.831     5972.322    5958.2379    5942.4899    6016.2382       65.172       65.172       65.172    2.8809705    129.93633 
    9500    300.48686   -63459.731   -62922.832    6046.5679    6056.0831    6060.3657    6023.2548       65.172       65.172       65.172    2.6107043    129.70393 
   10000    300.57458   -63459.893   -62922.838    6002.4565    5960.7703    5998.1473    6048.4519       65.172       65.172       65.172    2.7325626    129.53804 
Loop time of 6.11589 on 16 procs for 5000 steps with 13824 atoms

Performance: 70.636 ns/day, 0.340 hours/ns, 817.543 timesteps/s
99.6% CPU use with 16 MPI tasks x 1 OpenMP threads

MPI task timing breakdown:
Section |  min time  |  avg time  |  max time  |%varavg| %total
---------------------------------------------------------------
Pair    | 3.1905     | 4.5605     | 5.9076     |  55.6 | 74.57
Neigh   | 0          | 0          | 0          |   0.0 |  0.00
Comm    | 0.14609    | 1.4901     | 2.8694     |  97.2 | 24.36
Output  | 0.010534   | 0.010563   | 0.010614   |   0.0 |  0.17
Modify  | 0.013724   | 0.019342   | 0.024892   |   3.6 |  0.32
Other   |            | 0.03545    |            |       |  0.58

Nlocal:        864.000 ave         879 max         849 min
Histogram: 1 1 2 2 1 4 1 1 1 2
Nghost:        1428.00 ave        1443 max        1413 min
Histogram: 2 0 1 1 5 1 2 1 1 2
Neighs:         0.00000 ave           0 max           0 min
Histogram: 16 0 0 0 0 0 0 0 0 0
FullNghs:      24192.0 ave       24612 max       23772 min
Histogram: 1 1 2 2 1 4 1 1 1 2

Total # of neighbors = 387072
Ave neighs/atom = 28.000000
Neighbor list builds = 0
Dangerous builds = 0
unfix           NVE

# -------------------- sample the data -----------------------

### vels/pos print frequency
variable	dt_dump equal 24

### print pos to hdf5 file
#dump            POS all h5md ${dt_dump} pos.h5 position species
#dump_modify     POS sort id
dump            pos all custom ${dt_dump} pos.dat id type xu yu zu
dump            pos all custom 24 pos.dat id type xu yu zu
dump_modify     pos sort id

### run to collect pos/vels
fix             NVE all nve
run             24000
Per MPI rank memory allocation (min/avg/max) = 4.514 | 4.514 | 4.514 Mbytes
Step Temp PotEng TotEng Press Pxx Pyy Pzz Lx Ly Lz Fmax Fnorm 
   10000    300.57458   -63459.893   -62922.838    6002.4565    5960.7703    5998.1473    6048.4519       65.172       65.172       65.172    2.7325626    129.53804 
   10500    302.71763    -63463.72   -62922.835    6082.9022     6002.336    6144.2559    6102.1147       65.172       65.172       65.172    2.9105467    130.32083 
   11000    294.83993   -63449.638   -62922.829     6047.853    6074.5756    5993.4956    6075.4877       65.172       65.172       65.172    2.7576017    130.33158 
   11500    294.51291   -63449.058   -62922.833    5946.3982       5942.8    5981.0386    5915.3561       65.172       65.172       65.172    2.7095278    130.34908 
   12000    304.00629   -63466.027    -62922.84    6057.6124    6065.0018    6048.5621    6059.2733       65.172       65.172       65.172    2.9009049    129.75417 
   12500    296.33843    -63452.32   -62922.833    5984.3314    5951.5607    6035.0512    5966.3824       65.172       65.172       65.172    2.6864605    130.33964 
   13000    303.53724   -63465.188   -62922.839    6073.8922    6146.9844    5972.9837    6101.7084       65.172       65.172       65.172    2.8060662    129.73837 
   13500     300.8375   -63460.359   -62922.834    6119.5501    6143.9737    6073.7717    6140.9049       65.172       65.172       65.172    2.8016434    130.43309 
   14000    295.71251   -63451.198    -62922.83    6021.7925    6025.0011    6013.1154     6027.261       65.172       65.172       65.172    2.8529158    130.46542 
   14500    304.97032   -63467.753   -62922.844    6072.8859    6037.4009    6057.7695    6123.4874       65.172       65.172       65.172    2.9010773    129.51219 
   15000    290.36733   -63441.644   -62922.827    5901.4537    5938.9814    5904.5789    5860.8008       65.172       65.172       65.172    2.5595654    131.07994 
   15500    300.57719   -63459.897   -62922.836    6071.0603      6059.16    6073.2791    6080.7418       65.172       65.172       65.172    3.0720367    130.15091 
   16000    297.56183   -63454.502   -62922.829    6072.7408    6125.2119     6075.888    6017.1225       65.172       65.172       65.172    2.6888238    130.88159 
   16500    302.95335   -63464.142   -62922.836    6121.6005    6146.8745    6147.4365    6070.4906       65.172       65.172       65.172    2.7472188    130.02529 
   17000    297.83621   -63454.993    -62922.83    6056.8893    6049.5023    6065.8518    6055.3137       65.172       65.172       65.172    2.6957318    130.83833 
   17500    299.84534   -63458.592   -62922.839    6025.1848    5972.7379    6068.8899    6033.9267       65.172       65.172       65.172    2.8387588    130.27492 
   18000    299.75415   -63458.421   -62922.832      6123.72    6133.8081    6094.3103    6143.0417       65.172       65.172       65.172    2.6281675    130.82408 
   18500     298.6982   -63456.543    -62922.84     5994.195    5981.4347     6038.506    5962.6444       65.172       65.172       65.172    2.5025726    130.02273 
   19000    306.13993   -63469.842   -62922.842     6154.026    6128.6098    6181.4362    6152.0319       65.172       65.172       65.172    2.9827589     129.7187 
   19500    298.40336   -63456.012   -62922.836     6055.053    6005.4639    6120.3081    6039.3869       65.172       65.172       65.172    2.9039939    130.29159 
   20000     297.7817   -63454.894   -62922.829    6096.5418    6062.2035     6127.149    6100.2729       65.172       65.172       65.172    3.0344141    130.91752 
   20500    300.30273   -63459.404   -62922.834    6104.8024     6142.813    6085.5099    6086.0841       65.172       65.172       65.172    2.7599611    130.33121 
   21000    296.07776   -63451.847   -62922.827     6087.386    6083.8268    6087.3769    6090.9543       65.172       65.172       65.172    2.7756804    131.26206 
   21500    299.38248   -63457.761   -62922.836    6051.5538    6054.3804    6078.3492    6021.9318       65.172       65.172       65.172    2.9623419    130.19095 
   22000    298.59091   -63456.345   -62922.834    6072.6382    6063.2432    6105.2864     6049.385       65.172       65.172       65.172    2.7908255    130.52746 
   22500    299.09525   -63457.245   -62922.832    6079.3083    6088.3139    6114.3558    6035.2551       65.172       65.172       65.172    2.7279812    130.46872 
   23000    300.22701   -63459.276   -62922.841    5981.1774    5920.6359    6028.1006    5994.7958       65.172       65.172       65.172    2.7570991    129.26542 
   23500     297.7783   -63454.889   -62922.829    6046.6749     6083.976    6011.5174    6044.5313       65.172       65.172       65.172    2.9226213    130.86926 
   24000    299.74735   -63458.413   -62922.835    6080.6986    6020.0752     6127.523    6094.4977       65.172       65.172       65.172    2.9285239    130.09492 
   24500    298.73516   -63456.604   -62922.835    6046.0777    6054.0643    6017.5482    6066.6207       65.172       65.172       65.172    2.8084171    130.10426 
   25000    301.66495   -63461.841   -62922.837    6083.2732    6084.0857    6026.8664    6138.8677       65.172       65.172       65.172    2.8493491    130.00495 
   25500     299.6249   -63458.187   -62922.828     6137.786    6180.3389    6122.3289    6110.6903       65.172       65.172       65.172    3.1702784    130.60227 
   26000    297.81403   -63454.955   -62922.832    6055.3298    6091.5773    6017.6252    6056.7869       65.172       65.172       65.172    2.6808591     130.5246 
   26500     301.5604   -63461.652   -62922.835     6072.256    6093.1335    6057.7981    6065.8365       65.172       65.172       65.172    2.9589657    129.94081 
   27000    301.29987   -63461.183   -62922.831    6103.5268    6089.8436    6060.7064    6160.0303       65.172       65.172       65.172    3.0119765    130.34304 
   27500    298.22894   -63455.694    -62922.83    6043.0811    6038.6314    5997.5892    6093.0226       65.172       65.172       65.172    2.9544541     130.5768 
   28000    298.01486   -63455.311   -62922.829    6037.4334    6047.7042    6052.4506    6012.1453       65.172       65.172       65.172    2.8559535    130.88739 
   28500    300.66824   -63460.064   -62922.841    6023.9696    6048.8119    6023.3701    5999.7269       65.172       65.172       65.172    2.6974758    129.58845 
   29000    299.21076   -63457.456   -62922.837    6052.5972    6034.6399    6074.1537    6048.9979       65.172       65.172       65.172    2.6559256    130.10803 
   29500    298.01471   -63455.313   -62922.832    6087.1576    6045.4536    6106.4112    6109.6081       65.172       65.172       65.172    2.5944263    130.67228 
   30000    296.76873   -63453.087   -62922.832    6085.8101    6064.6125    6060.3573    6132.4607       65.172       65.172       65.172    2.8342028    130.63875 
   30500    301.65892   -63461.831   -62922.838    6060.8738    6058.5585    6051.3579     6072.705       65.172       65.172       65.172    2.7854233    129.92414 
   31000    301.96139   -63462.372   -62922.839    6069.2843    6126.9071     6044.596      6036.35       65.172       65.172       65.172    3.0229238    129.99809 
   31500    297.78444   -63454.904   -62922.833    6041.8891    6062.2499    6003.1216    6060.2956       65.172       65.172       65.172    2.7179644     130.7878 
   32000    298.07736   -63455.425   -62922.831    6070.2269    6084.5026    6063.2505    6062.9276       65.172       65.172       65.172    2.8497873    130.88746 
   32500     300.2171   -63459.255   -62922.838    6021.9991    5986.6801    6040.5485    6038.7686       65.172       65.172       65.172    3.2198566    130.37089 
   33000    300.49401    -63459.75   -62922.839    6067.5412    6065.3374    6068.9704    6068.3159       65.172       65.172       65.172      2.74751     130.3015 
   33500    301.73071   -63461.965   -62922.843    6042.3429    6046.2854    6033.3075    6047.4359       65.172       65.172       65.172     2.638498    129.85637 
   34000    297.93565   -63455.179   -62922.838    6016.4677    6061.1667    6006.7016     5981.535       65.172       65.172       65.172    2.6772393    130.09065 
Loop time of 31.535 on 16 procs for 24000 steps with 13824 atoms

Performance: 65.756 ns/day, 0.365 hours/ns, 761.060 timesteps/s
99.4% CPU use with 16 MPI tasks x 1 OpenMP threads

MPI task timing breakdown:
Section |  min time  |  avg time  |  max time  |%varavg| %total
---------------------------------------------------------------
Pair    | 16.056     | 22.7       | 29.212     | 105.9 | 71.98
Neigh   | 0          | 0          | 0          |   0.0 |  0.00
Comm    | 0.97864    | 7.5047     | 14.184     | 184.2 | 23.80
Output  | 0.82893    | 0.94341    | 1.0562     |   7.3 |  2.99
Modify  | 0.069791   | 0.096565   | 0.12412    |   6.7 |  0.31
Other   |            | 0.2901     |            |       |  0.92

Nlocal:        864.000 ave         883 max         845 min
Histogram: 1 0 2 5 1 1 1 2 2 1
Nghost:        1428.00 ave        1447 max        1409 min
Histogram: 1 2 2 1 1 1 5 2 0 1
Neighs:         0.00000 ave           0 max           0 min
Histogram: 16 0 0 0 0 0 0 0 0 0
FullNghs:      24192.0 ave       24724 max       23660 min
Histogram: 1 0 2 5 1 1 1 2 2 1

Total # of neighbors = 387072
Ave neighs/atom = 28.000000
Neighbor list builds = 0
Dangerous builds = 0
unfix           NVE






Total wall time: 0:00:43
