# LAMMPS data file written by OVITO

12 atoms
7 bonds
12 angles
9 dihedrals

6 atom types
3 bond types
4 angle types
1 dihedral types

0.0 6.3725596 xlo xhi
0.0 6.3725596 ylo yhi
0.0 6.3725596 zlo zhi

Atoms

1 1 1 0.771 2.5424581 3.1130738 2.9175532
2 1 2 -1.1 3.9076596 3.114229 3.4906879
3 1 3 0.023 2.6200564 3.1120508 1.8211326
4 1 3 0.023 2.0136013 4.0155272 3.2565727
5 1 3 0.023 2.0145133 2.2107277 3.2582984
6 1 4 0.54 4.4497557 3.9597476 3.1959214
7 1 4 0.54 4.4502645 2.268395 3.1976345
8 1 4 0.54 3.913304 3.115289 4.5322819
9 1 5 2.03 6.0803323 6.2282834 6.22996
10 1 6 -1.13 5.787519 6.2284823 3.0278928
11 1 6 -1.13 5.6594115 3.1141136 0.150803
12 1 6 -1.13 2.8493612 6.2283993 5.8785548

Bonds

1 1 1 3
2 1 1 4
3 1 1 5
4 2 2 6
5 2 2 7
6 2 2 8
7 3 1 2


Angles

1 1 3 1 4
2 1 4 1 5
3 1 3 1 5
4 2 6 2 7
5 2 7 2 8
6 2 6 2 8
7 3 3 1 2
8 3 4 1 2
9 3 5 1 2
10 4 6 2 1
11 4 7 2 1
12 4 8 2 1

Dihedrals

1 1 3 1 2 6
2 1 3 1 2 7
3 1 3 1 2 8
4 1 4 1 2 6
5 1 4 1 2 7
6 1 4 1 2 8
7 1 5 1 2 6
8 1 5 1 2 7
9 1 5 1 2 8





