si_2x2x2                                
   5.4309000000000003     
     2.000000    0.000000    0.000000
     0.000000    2.000000    0.000000
     0.000000    0.000000    2.000000
   Si
    64
Direct
  0.990824  0.986303  0.009392
  0.494543  0.008106  0.004669
  0.989864  0.491687  0.004087
  0.510940  0.511793  0.990076
  0.010791  0.005058  0.499034
  0.496145  0.002321  0.489482
  0.982253  0.496056  0.480398
  0.489829  0.489458  0.516960
  0.387480  0.126669  0.355891
  0.877418  0.141128  0.375042
  0.370973  0.615767  0.375361
  0.865258  0.627076  0.363832
  0.378628  0.127201  0.866219
  0.871882  0.127195  0.870500
  0.377635  0.643694  0.864144
  0.865307  0.621285  0.867543
  0.015382  0.256363  0.245671
  0.507052  0.256559  0.238168
  0.000143  0.750578  0.255727
  0.509385  0.738869  0.268800
  0.011731  0.249404  0.743094
  0.499738  0.259942  0.761760
  0.997479  0.750816  0.750240
  0.510233  0.768739  0.751454
  0.385476  0.376951  0.103886
  0.866173  0.366325  0.128331
  0.385830  0.865003  0.127300
  0.864915  0.863365  0.135592
  0.358441  0.377056  0.642253
  0.869331  0.369445  0.610188
  0.372810  0.873074  0.625877
  0.879487  0.886301  0.637953
  0.241289  0.989635  0.256554
  0.748074  0.001866  0.260570
  0.265146  0.495036  0.240312
  0.732148  0.484961  0.260715
  0.252368  0.991404  0.760435
  0.746282  0.001144  0.751153
  0.245724  0.499363  0.758881
  0.750370  0.487361  0.742296
  0.130468  0.115704  0.119023
  0.629882  0.136844  0.124562
  0.135564  0.616439  0.123582
  0.639827  0.624446  0.139471
  0.137340  0.127327  0.618890
  0.611591  0.127305  0.620897
  0.116506  0.617579  0.625711
  0.630183  0.629435  0.634402
  0.251213  0.245067  0.989493
  0.749085  0.245360  0.999922
  0.247349  0.750147  0.999881
  0.743083  0.764346  0.999140
  0.268175  0.268023  0.487160
  0.739700  0.248121  0.498527
  0.245997  0.732040  0.492931
  0.763311  0.746582  0.498380
  0.130047  0.385414  0.370679
  0.597083  0.373608  0.379804
  0.125247  0.871455  0.380602
  0.625819  0.873810  0.383069
  0.126205  0.371293  0.884069
  0.631515  0.377845  0.883672
  0.121060  0.872836  0.877425
  0.628972  0.898622  0.878869

   48   48   48
 -.93417445067E+02 0.15901187000E+03 0.43147744082E+03 0.50074314805E+03 0.40673274470E+03
 0.28820619113E+03 0.19205529522E+03 0.12556184962E+03 0.83221017112E+02 0.56911333224E+02
 0.40852696876E+02 0.31812815068E+02 0.27856573422E+02 0.28618837326E+02 0.35056551340E+02
 0.50051671020E+02 0.78772212814E+02 0.13052047844E+03 0.21583701503E+03 0.33485215353E+03
 0.45655666197E+03 0.45194454803E+03 0.21211207309E+03 -.11021764742E+03 -.19151481404E+03
 0.67004728153E+02 0.39982565128E+03 0.52854984477E+03 0.45263034868E+03 0.32696231571E+03
 0.21988535662E+03 0.14356249683E+03 0.94171401702E+02 0.63543073626E+02 0.45035294224E+02
 0.34843077967E+02 0.30774599815E+02 0.32352071200E+02 0.40564993320E+02 0.58274913538E+02
 0.90987872033E+02 0.14783553462E+03 0.23789569325E+03 0.35843845456E+03 0.47274779248E+03
 0.45072614729E+03 0.21595053398E+03 -.60635057309E+02 0.20285221861E+03 0.34366282404E+03
 0.48679314977E+03 0.48831132208E+03 0.39061387971E+03 0.28303595997E+03 0.19497932490E+03
 0.13222728433E+03 0.90627214354E+02 0.63715512327E+02 0.46727106567E+02 0.36768601044E+02
 0.32040290922E+02 0.32265649928E+02 0.38533132452E+02 0.53784845555E+02 0.83277548466E+02
 0.13636985189E+03 0.22355864533E+03 0.34525901010E+03 0.47209477333E+03 0.47910915226E+03
 0.25432002128E+03 -.60914950790E+02 -.15288607304E+03 0.81250777040E+02 0.39114340284E+03
 0.50903774355E+03 0.43344409707E+03 0.31209103953E+03 0.20927949908E+03 0.13666032953E+03
 0.90155369296E+02 0.61587425156E+02 0.44462960237E+02 0.35223403703E+02 0.31903252822E+02
 0.34167555428E+02 0.43028476851E+02 0.61276316948E+02 0.93975992585E+02 0.14913324954E+03
 0.23464300514E+03 0.34912361930E+03 0.46949630893E+03 0.51314913881E+03 0.40466579192E+03
 0.23691729721E+03 0.44408056274E+03 0.48207640808E+03 0.50263700189E+03 0.45268840372E+03
 0.36627438835E+03 0.27737402567E+03 0.20258204902E+03 0.14628239246E+03 0.10641457002E+03
 0.78860834241E+02 0.60352699593E+02 0.48718861698E+02 0.42563055234E+02 0.41747048648E+02
 0.47432953447E+02 0.62438357868E+02 0.91780239324E+02 0.14399039766E+03 0.22835404661E+03
 0.34595240691E+03 0.47657103318E+03 0.53956368896E+03 0.43400844403E+03 0.23639742607E+03
 0.16406214990E+03 0.29720037671E+03 0.46776927731E+03 0.49940252149E+03 0.40835061484E+03
 0.29681929791E+03 0.20360026300E+03 0.13735014767E+03 0.94370122762E+02 0.67613240526E+02
 0.51427948664E+02 0.42688994780E+02 0.39704816415E+02 0.42254796319E+02 0.51406535497E+02
 0.69711298801E+02 0.10136483498E+03 0.15237665692E+03 0.22817499858E+03 0.32741160210E+03
 0.43525327552E+03 0.51630156924E+03 0.51850067957E+03 0.46469591927E+03 0.46597875151E+03
 0.45795128078E+03 0.43489989593E+03 0.38963451440E+03 0.32962370151E+03 0.26729478153E+03
 0.21158378808E+03 0.16621727417E+03 0.13111496335E+03 0.10438936313E+03 0.84521979385E+02
 0.70626906927E+02 0.62243921368E+02 0.59624187096E+02 0.63948485674E+02 0.77640012323E+02
 0.10492920716E+03 0.15255507266E+03 0.22734353624E+03 0.32978526860E+03 0.44576250317E+03
 0.53903814454E+03 0.54632797664E+03 0.47920635779E+03 0.43972452153E+03 0.47346393385E+03
 0.50492743039E+03 0.46277790846E+03 0.37389364923E+03 0.28074797877E+03 0.20304143721E+03
 0.14642931237E+03 0.10839701427E+03 0.83817101041E+02 0.68417215115E+02 0.59779215425E+02
 0.56661384223E+02 0.59022967736E+02 0.67900978395E+02 0.85318304311E+02 0.11417627163E+03
 0.15804652045E+03 0.21928168035E+03 0.29524416684E+03 0.37543576166E+03 0.44165956197E+03
 0.47589212113E+03 0.47578877135E+03 0.35895380589E+03 0.34984974665E+03 0.33570922944E+03
 0.31341753720E+03 0.28398831234E+03 0.25121451508E+03 0.21913306173E+03 0.19038931402E+03
 0.16535120275E+03 0.14316057641E+03 0.12365818558E+03 0.10765896494E+03 0.96286218475E+02
 0.90717704180E+02 0.92249624437E+02 0.10258649597E+03 0.12454025067E+03 0.16241821624E+03
 0.22011104987E+03 0.29677993514E+03 0.38229226850E+03 0.45641607315E+03 0.49692139145E+03
 0.49608017505E+03 0.48031317874E+03 0.46790148707E+03 0.44212394150E+03 0.39248394388E+03
 0.32765937300E+03 0.26196004442E+03 0.20616092145E+03 0.16412963170E+03 0.13469930933E+03
 0.11452890039E+03 0.10076438213E+03 0.92124002239E+02 0.88326558115E+02 0.89724897511E+02
 0.97149767763E+02 0.11170129074E+03 0.13467814167E+03 0.16740826289E+03 0.20986246896E+03
 0.25861909886E+03 0.30628405586E+03 0.34324182275E+03 0.36242950911E+03 0.36496823860E+03
 0.24627677849E+03 0.24310257713E+03 0.24153654066E+03 0.23971860018E+03 0.23610031954E+03
 0.23060338278E+03 0.22436573560E+03 0.21795024728E+03 0.21003904377E+03 0.19877063684E+03
 0.18400015144E+03 0.16780615722E+03 0.15329046011E+03 0.14321449840E+03 0.13924970808E+03
 0.14229919764E+03 0.15366244164E+03 0.17558023926E+03 0.20983981626E+03 0.25505969670E+03
 0.30447305062E+03 0.34663940047E+03 0.37112357918E+03 0.37621058348E+03 0.36914114443E+03
 0.35630701412E+03 0.33705055664E+03 0.30916379200E+03 0.27513844932E+03 0.24095542637E+03
 0.21206337940E+03 0.19094114904E+03 0.17659678707E+03 0.16602441151E+03 0.15693561084E+03
 0.14925773813E+03 0.14429166736E+03 0.14324360012E+03 0.14659786958E+03 0.15426360022E+03
 0.16617415553E+03 0.18245522157E+03 0.20245543249E+03 0.22362708203E+03 0.24169954434E+03
 0.25252615239E+03 0.25479026418E+03 0.25117208170E+03 0.16014294392E+03 0.16093322757E+03
 0.16715302737E+03 0.17788444960E+03 0.19181595282E+03 0.20838043779E+03 0.22754312584E+03
 0.24774332137E+03 0.26467356669E+03 0.27321278589E+03 0.27070745476E+03 0.25869103614E+03
 0.24204047654E+03 0.22583736561E+03 0.21246563632E+03 0.20209696136E+03 0.19542568496E+03
 0.19452825624E+03 0.20113620756E+03 0.21464757232E+03 0.23131760758E+03 0.24533041881E+03
 0.25224025627E+03 0.25200841809E+03 0.24791486082E+03 0.24283980493E+03 0.23741955765E+03
 0.23118679661E+03 0.22468059849E+03 0.22028712617E+03 0.22085938044E+03 0.22719999607E+03
 0.23653945318E+03 0.24378227316E+03 0.24511082997E+03 0.24086990119E+03 0.23453889384E+03
 0.22894126195E+03 0.22404006222E+03 0.21836761698E+03 0.21158633910E+03 0.20486163515E+03
 0.19924162882E+03 0.19441868888E+03 0.18891198135E+03 0.18143069023E+03 0.17250147206E+03
 0.16452695645E+03 0.10295427831E+03 0.10530100319E+03 0.11441838899E+03 0.13068586627E+03
 0.15454243319E+03 0.18690936259E+03 0.22842395911E+03 0.27682570227E+03 0.32511966718E+03
 0.36317276807E+03 0.38200009532E+03 0.37924293740E+03 0.36157331756E+03 0.33831273258E+03
 0.31265862639E+03 0.28300410842E+03 0.25046104827E+03 0.22024707207E+03 0.19707034328E+03
 0.18215172700E+03 0.17361755352E+03 0.16817153471E+03 0.16332467459E+03 0.15887446270E+03
 0.15616474169E+03 0.15652525076E+03 0.16066134568E+03 0.16883948813E+03 0.18188220608E+03
 0.20205856504E+03 0.23178211195E+03 0.27038966023E+03 0.31199238983E+03 0.34660625523E+03
 0.36521153901E+03 0.36660003865E+03 0.35819315716E+03 0.34661700462E+03 0.33024113996E+03
 0.30460986818E+03 0.27067276703E+03 0.23423055414E+03 0.20068859301E+03 0.17245833741E+03
 0.14948211636E+03 0.13088205353E+03 0.11644656032E+03 0.10686670061E+03 0.67482823466E+02
 0.70091499939E+02 0.79451407616E+02 0.97084310622E+02 0.12533433113E+03 0.16742967955E+03
 0.22627056686E+03 0.30094177564E+03 0.38308891429E+03 0.45622265442E+03 0.50067802964E+03
 0.50526290768E+03 0.48195313929E+03 0.45456648047E+03 0.42228898015E+03 0.37450430697E+03
 0.31330705854E+03 0.25064618135E+03 0.19801610617E+03 0.15954675028E+03 0.13365352883E+03
 0.11678946309E+03 0.10588086354E+03 0.99478658307E+02 0.97445100487E+02 0.10022483051E+03
 0.10862879348E+03 0.12393695571E+03 0.14857682502E+03 0.18660741116E+03 0.24175236528E+03
 0.31316583366E+03 0.39167848924E+03 0.45942416005E+03 0.49707393611E+03 0.49832631217E+03
 0.48253184417E+03 0.46981097649E+03 0.44778629071E+03 0.40190362986E+03 0.33658406460E+03
 0.26668457942E+03 0.20500654934E+03 0.15675901322E+03 0.12157046845E+03 0.96926781780E+02
 0.80508603523E+02 0.70929266958E+02 0.45959000192E+02 0.48499298500E+02 0.57358838604E+02
 0.74659314035E+02 0.10403414042E+03 0.15091043084E+03 0.22115840968E+03 0.31634092685E+03
 0.42719617849E+03 0.52917552072E+03 0.57545287578E+03 0.53843681941E+03 0.47956750432E+03
 0.47021038222E+03 0.48537136921E+03 0.45301986194E+03 0.37186756788E+03 0.28071109669E+03
 0.20249916664E+03 0.14591173050E+03 0.10886030021E+03 0.85902937688E+02 0.72260736969E+02
 0.65094548355E+02 0.63207926395E+02 0.66504854789E+02 0.75959305542E+02 0.93765809898E+02
 0.12401236081E+03 0.17294761389E+03 0.24661552477E+03 0.34529881808E+03 0.45655131930E+03
 0.55096573150E+03 0.57603440781E+03 0.52168466336E+03 0.47446032043E+03 0.49378869707E+03
 0.52285370144E+03 0.48574354796E+03 0.39546046996E+03 0.29540668593E+03 0.20921468687E+03
 0.14545331414E+03 0.10241734051E+03 0.74873169494E+02 0.58070955693E+02 0.48995796199E+02
 0.33630253719E+02 0.36135638033E+02 0.44553269339E+02 0.61201899149E+02 0.90307361944E+02
 0.13881368083E+03 0.21501226729E+03 0.32219943184E+03 0.44860499209E+03 0.54941431270E+03
 0.52499406357E+03 0.36968026827E+03 0.24224024084E+03 0.28495113703E+03 0.42611053893E+03
 0.48533985516E+03 0.41550444812E+03 0.30616453093E+03 0.20941969656E+03 0.14005727491E+03
 0.95906481904E+02 0.69478282611E+02 0.54302882374E+02 0.46549809237E+02 0.44415125912E+02
 0.47450814840E+02 0.56683325043E+02 0.74761568338E+02 0.10675583884E+03 0.16059041594E+03
 0.24446141595E+03 0.35966867519E+03 0.48934969985E+03 0.57430009938E+03 0.50645880293E+03
 0.31953711273E+03 0.21591375153E+03 0.31150842920E+03 0.47497345173E+03 0.52064546255E+03
 0.43375767568E+03 0.31441301085E+03 0.21126661676E+03 0.13738354229E+03 0.90037235856E+02
 0.61430056517E+02 0.44854900924E+02 0.36322253469E+02 0.27812606846E+02 0.30429685606E+02
 0.38722364842E+02 0.55060928145E+02 0.83857912054E+02 0.13279687719E+03 0.21131274455E+03
 0.32284194866E+03 0.45134242062E+03 0.51841236850E+03 0.38803920961E+03 0.98646990385E+02
 -.87027386376E+02 0.28282978830E+02 0.31213926012E+03 0.48162472959E+03 0.44599116573E+03
 0.32806095204E+03 0.21985325808E+03 0.14199888300E+03 0.92820218359E+02 0.63661576243E+02
 0.46966688989E+02 0.38315283613E+02 0.35540986705E+02 0.38000365980E+02 0.46675131761E+02
 0.64269267083E+02 0.96112080661E+02 0.15091590960E+03 0.23801924481E+03 0.35860953416E+03
 0.49023284548E+03 0.53226897892E+03 0.34610167180E+03 0.19254130654E+02 -.13795412582E+03
 0.39765690382E+02 0.35124808647E+03 0.50545188017E+03 0.44948870725E+03 0.32300131872E+03
 0.21135062643E+03 0.13239017109E+03 0.83209386158E+02 0.54418825511E+02 0.38213069585E+02
 0.30156431441E+02 0.27070699570E+02 0.30031130854E+02 0.38633228071E+02 0.55296359790E+02
 0.84494399878E+02 0.13402123223E+03 0.21325139651E+03 0.32511217679E+03 0.45108525357E+03
 0.49985924476E+03 0.32696326019E+03 -.33410263054E+01 -.18672996904E+03 -.24789051520E+02
 0.30959255675E+03 0.50582282693E+03 0.47470210509E+03 0.35067712131E+03 0.23593926704E+03
 0.15238257747E+03 0.98753409638E+02 0.66405859369E+02 0.47527668566E+02 0.37414861504E+02
 0.33610689326E+02 0.35316877002E+02 0.43443959771E+02 0.60592404788E+02 0.91940906601E+02
 0.14620161112E+03 0.23274684155E+03 0.35239185087E+03 0.48079560019E+03 0.50689885220E+03
 0.28824791340E+03 -.74178357420E+02 -.24440011393E+03 -.43495582551E+02 0.31059453039E+03
 0.49766852221E+03 0.45267737703E+03 0.32480232828E+03 0.21098650106E+03 0.13076487968E+03
 0.81229880812E+02 0.52565354720E+02 0.36689489313E+02 0.29018900732E+02 0.31392644069E+02
 0.35007268553E+02 0.44430644625E+02 0.62105956437E+02 0.92459869615E+02 0.14279362900E+03
 0.22136177977E+03 0.33051849622E+03 0.45398372347E+03 0.52366218861E+03 0.41584364324E+03
 0.17620594220E+03 0.53706011943E+02 0.19741600889E+03 0.44954479801E+03 0.56616813357E+03
 0.50088271904E+03 0.37346318715E+03 0.25771225404E+03 0.17122211401E+03 0.11341078599E+03
 0.77032485117E+02 0.54988724091E+02 0.42668264225E+02 0.37393918192E+02 0.38186351122E+02
 0.45843452300E+02 0.62876244871E+02 0.94162028511E+02 0.14779490900E+03 0.23222135987E+03
 0.34824502862E+03 0.47635137481E+03 0.53626297549E+03 0.40508828409E+03 0.14425833289E+03
 0.13278153559E+02 0.15879765415E+03 0.41136442194E+03 0.52074060581E+03 0.44840489787E+03
 0.32153836386E+03 0.21096091925E+03 0.13277223451E+03 0.84046692528E+02 0.55713746188E+02
 0.40131221393E+02 0.32830422353E+02 0.42290696144E+02 0.46942572226E+02 0.57712222226E+02
 0.76869224823E+02 0.10838708946E+03 0.15829641181E+03 0.23271215284E+03 0.33262719536E+03
 0.44542666578E+03 0.53561414035E+03 0.52949165798E+03 0.43195293433E+03 0.38180541757E+03
 0.46335348081E+03 0.57866001289E+03 0.59341905355E+03 0.50510001170E+03 0.38892575454E+03
 0.28165166492E+03 0.19708575942E+03 0.13673192429E+03 0.96160860775E+02 0.70027363448E+02
 0.54515434440E+02 0.47123732047E+02 0.46733738430E+02 0.53980310489E+02 0.71229821540E+02
 0.10283822081E+03 0.15556073742E+03 0.23581737161E+03 0.34359917863E+03 0.46441224627E+03
 0.55816576259E+03 0.54586954838E+03 0.43580291890E+03 0.36696136644E+03 0.42753879941E+03
 0.52433353272E+03 0.52370710298E+03 0.42680609493E+03 0.31046232252E+03 0.21044424083E+03
 0.13845473260E+03 0.92334732606E+02 0.64936975090E+02 0.49838306686E+02 0.43017365016E+02
 0.62969877238E+02 0.69083308020E+02 0.81528065580E+02 0.10188391711E+03 0.13291891010E+03
 0.17869974654E+03 0.24275051468E+03 0.32403635992E+03 0.41269905297E+03 0.48860059048E+03
 0.52754403784E+03 0.52104211082E+03 0.51579005210E+03 0.54582881721E+03 0.57184173392E+03
 0.54608434369E+03 0.47713643275E+03 0.38938668601E+03 0.30204599924E+03 0.22677130780E+03
 0.16811694918E+03 0.12503696581E+03 0.94685493215E+02 0.75040136772E+02 0.64646883421E+02
 0.62599488379E+02 0.69342512703E+02 0.86818707995E+02 0.11828665669E+03 0.16825725769E+03
 0.24018243432E+03 0.33188726387E+03 0.43154987495E+03 0.51654373852E+03 0.55759043281E+03
 0.54264076636E+03 0.51823186700E+03 0.52116134849E+03 0.51808957106E+03 0.46726313180E+03
 0.38215400601E+03 0.28925561002E+03 0.20844231179E+03 0.14810933104E+03 0.10768916324E+03
 0.82703471986E+02 0.68679306828E+02 0.62651679638E+02 0.99335047440E+02 0.10704699659E+03
 0.12063084311E+03 0.14030195451E+03 0.16689586578E+03 0.20235960030E+03 0.24837141740E+03
 0.30292614264E+03 0.35842237989E+03 0.40357661031E+03 0.42922799074E+03 0.43761262429E+03
 0.44339567144E+03 0.45589170222E+03 0.46519464720E+03 0.45560417539E+03 0.42268450517E+03
 0.37227793021E+03 0.31363899771E+03 0.25622371504E+03 0.20618148798E+03 0.16476189303E+03
 0.13161758352E+03 0.10748443334E+03 0.93183796303E+02 0.88822870030E+02 0.94738492189E+02
 0.11185310281E+03 0.14134731341E+03 0.18473943615E+03 0.24248267486E+03 0.31054879089E+03
 0.37875165880E+03 0.43290401334E+03 0.46093649027E+03 0.46264667863E+03 0.45142491400E+03
 0.43787521273E+03 0.41649476669E+03 0.37727732906E+03 0.32161137224E+03 0.26080804441E+03
 0.20613517288E+03 0.16342309588E+03 0.13323342033E+03 0.11349247429E+03 0.10203300847E+03
 0.97546225632E+02 0.16074943124E+03 0.16921107873E+03 0.18137511689E+03 0.19570339720E+03
 0.21124238532E+03 0.22867131010E+03 0.24950930394E+03 0.27306851284E+03 0.29488772625E+03
 0.30948570821E+03 0.31480142062E+03 0.31484006640E+03 0.31780412032E+03 0.32875525480E+03
 0.34410772675E+03 0.35512351545E+03 0.35471581254E+03 0.34040076228E+03 0.31467385963E+03
 0.28321493352E+03 0.25030681146E+03 0.21693807774E+03 0.18441790116E+03 0.15677187942E+03
 0.13825210520E+03 0.13095985963E+03 0.13525775520E+03 0.15032629994E+03 0.17437471760E+03
 0.20578351660E+03 0.24311512762E+03 0.28262814238E+03 0.31707616159E+03 0.33867311280E+03
 0.34397474412E+03 0.33662814142E+03 0.32474173649E+03 0.31367589034E+03 0.30170980202E+03
 0.28399260349E+03 0.25937295315E+03 0.23191360161E+03 0.20696960405E+03 0.18746837925E+03
 0.17349817911E+03 0.16398387856E+03 0.15836204688E+03 0.15707862637E+03 0.25579929682E+03
 0.26291067809E+03 0.26843756445E+03 0.26942386833E+03 0.26494965168E+03 0.25664185218E+03
 0.24779816963E+03 0.24060623270E+03 0.23411034652E+03 0.22616046261E+03 0.21699924113E+03
 0.21021872951E+03 0.21062764621E+03 0.22109822347E+03 0.24054414412E+03 0.26419775216E+03
 0.28583578150E+03 0.30079201418E+03 0.30793250385E+03 0.30815119710E+03 0.30067027783E+03
 0.28324727329E+03 0.25713989704E+03 0.22908879967E+03 0.20720804238E+03 0.19650050079E+03
 0.19759349243E+03 0.20731856189E+03 0.22065423875E+03 0.23378797758E+03 0.24532703045E+03
 0.25425253775E+03 0.25793520188E+03 0.25364292573E+03 0.24193013640E+03 0.22731300714E+03
 0.21514898424E+03 0.20830525045E+03 0.20616459264E+03 0.20609243709E+03 0.20652413275E+03
 0.20853158525E+03 0.21385820740E+03 0.22239028176E+03 0.23202479047E+03 0.24014650604E+03
 0.24561790639E+03 0.25001262217E+03 0.38110963377E+03 0.38545111929E+03 0.37870331794E+03
 0.35673949971E+03 0.32260954256E+03 0.28271907194E+03 0.24372175493E+03 0.21030336740E+03
 0.18347510973E+03 0.16207012816E+03 0.14581870193E+03 0.13621962090E+03 0.13528166869E+03
 0.14439594954E+03 0.16376294791E+03 0.19180142504E+03 0.22525525875E+03 0.26089392291E+03
 0.29673812605E+03 0.32986853543E+03 0.35370282762E+03 0.36091856890E+03 0.35005395848E+03
 0.32775706746E+03 0.30501477969E+03 0.29074826765E+03 0.28636269588E+03 0.28577043146E+03
 0.28131029647E+03 0.26941310172E+03 0.25139000736E+03 0.23049141751E+03 0.20876589157E+03
 0.18675272264E+03 0.16570334441E+03 0.14842718592E+03 0.13756912853E+03 0.13431509054E+03
 0.13856283255E+03 0.14956415318E+03 0.16719655419E+03 0.19260446383E+03 0.22643583804E+03
 0.26652961046E+03 0.30725717956E+03 0.34079006878E+03 0.36184274625E+03 0.37309935249E+03
 0.49744099744E+03 0.50978004052E+03 0.49390372904E+03 0.44414135763E+03 0.37454082505E+03
 0.30133830758E+03 0.23586043268E+03 0.18355567221E+03 0.14479367689E+03 0.11726000546E+03
 0.98977559502E+02 0.89172921821E+02 0.87686281215E+02 0.94868619752E+02 0.11161969157E+03
 0.13876705197E+03 0.17627606288E+03 0.22377191686E+03 0.28061230383E+03 0.34271801859E+03
 0.40011142525E+03 0.44064437645E+03 0.45624617474E+03 0.44740861451E+03 0.42591009069E+03
 0.40769759424E+03 0.39662200676E+03 0.38164806147E+03 0.35236669825E+03 0.30925659730E+03
 0.25989537319E+03 0.21236763224E+03 0.17161032583E+03 0.13891356173E+03 0.11410088667E+03
 0.97244048408E+02 0.88445443040E+02 0.87661748444E+02 0.95206609060E+02 0.11198510571E+03
 0.13999397695E+03 0.18230794263E+03 0.24090853038E+03 0.31311262915E+03 0.38835147840E+03
 0.44905857112E+03 0.48027183528E+03 0.48701001232E+03 0.46276757519E+03 0.53741447846E+03
 0.56931661979E+03 0.51022242824E+03 0.40984897725E+03 0.30838473507E+03 0.22352027036E+03
 0.16029860216E+03 0.11661460069E+03 0.87795057387E+02 0.69991501757E+02 0.60864257503E+02
 0.59014646292E+02 0.64234963220E+02 0.77638635243E+02 0.10137014442E+03 0.13771178955E+03
 0.18914782725E+03 0.25772674255E+03 0.34125095460E+03 0.43025336482E+03 0.50890722499E+03
 0.55778056844E+03 0.56183053506E+03 0.53110081153E+03 0.50705214803E+03 0.50027992778E+03
 0.47764255376E+03 0.42314334199E+03 0.34698292172E+03 0.26744665945E+03 0.19813533781E+03
 0.14463201880E+03 0.10657935026E+03 0.81211662451E+02 0.65938626875E+02 0.59050588735E+02
 0.59782722173E+02 0.68771725079E+02 0.88025740923E+02 0.12142303532E+03 0.17463577122E+03
 0.25230001446E+03 0.35179105733E+03 0.45555792562E+03 0.52277503339E+03 0.50387374211E+03
 0.45000702273E+03 0.19330950317E+03 0.38500359308E+03 0.54327962771E+03 0.53400710905E+03
 0.42229668558E+03 0.30440640819E+03 0.20914803733E+03 0.14173392591E+03 0.97582800179E+02
 0.69790959881E+02 0.53131951119E+02 0.44574191880E+02 0.42256832233E+02 0.45771885233E+02
 0.56097895195E+02 0.75755783371E+02 0.10812096087E+03 0.15775996469E+03 0.22977368280E+03
 0.32565893132E+03 0.43871665655E+03 0.54924896919E+03 0.61490433681E+03 0.57988470669E+03
 0.48682907722E+03 0.45340806354E+03 0.50378846146E+03 0.53450044103E+03 0.47772414446E+03
 0.37566915294E+03 0.27162354102E+03 0.18645856859E+03 0.12554374789E+03 0.85640717973E+02
 0.61147696170E+02 0.47480652436E+02 0.42005022331E+02 0.43648974451E+02 0.53232529537E+02
 0.73259536456E+02 0.10886198871E+03 0.16795836489E+03 0.25756944783E+03 0.37428080258E+03
 0.48911709829E+03 0.50419760330E+03 0.35496843017E+03 0.18136436969E+03 -.11823959159E+03
 0.17404977082E+03 0.45686543645E+03 0.51771886833E+03 0.41640625706E+03 0.29473270166E+03
 0.19718049678E+03 0.12992443687E+03 0.87103233296E+02 0.60644851253E+02 0.44765051291E+02
 0.36343058298E+02 0.33402172427E+02 0.35471323105E+02 0.43291278894E+02 0.59259679110E+02
 0.86925950160E+02 0.13188821324E+03 0.20163542832E+03 0.30107258026E+03 0.42530548363E+03
 0.54674640391E+03 0.57228814012E+03 0.42426651578E+03 0.21882050767E+03 0.18044795877E+03
 0.34424293609E+03 0.50436343639E+03 0.50227920581E+03 0.39126585079E+03 0.27209842207E+03
 0.17742364187E+03 0.11309831934E+03 0.73288698197E+02 0.50092497677E+02 0.37707185898E+02
 0.33178803501E+02 0.35378529753E+02 0.45166819249E+02 0.65226064851E+02 0.10130570154E+03
 0.16259915499E+03 0.25733349628E+03 0.38083981965E+03 0.48892556360E+03 0.43689012116E+03
 0.16232051560E+03 -.12202808765E+03 -.15904698329E+03 0.13268202713E+03 0.42614876204E+03
 0.49843498734E+03 0.40343887038E+03 0.28553099990E+03 0.19100042205E+03 0.12601067793E+03
 0.84587358609E+02 0.58741146319E+02 0.42889988029E+02 0.34081253972E+02 0.30312303370E+02
 0.31042160706E+02 0.36856514815E+02 0.49897932492E+02 0.73436256062E+02 0.11324342967E+03
 0.17795949471E+03 0.27436294438E+03 0.39748254690E+03 0.50717593572E+03 0.46915592581E+03
 0.20999332094E+03 -.82546561263E+02 -.10760942143E+03 0.16266454307E+03 0.44094215273E+03
 0.50149263879E+03 0.39590742996E+03 0.27014049911E+03 0.17150430478E+03 0.10643288839E+03
 0.67462721220E+02 0.45366088483E+02 0.33871396688E+02 0.29987133214E+02 0.32607118979E+02
 0.42564767047E+02 0.62561062022E+02 0.98390579624E+02 0.15941128051E+03 0.25407457216E+03
 0.37783982014E+03 0.48549745234E+03 0.42967906741E+03 0.14690658011E+03 -.15069661513E+03
 0.10755037996E+03 0.29614035344E+03 0.47459434595E+03 0.48710339563E+03 0.38756059499E+03
 0.27860781703E+03 0.19119606645E+03 0.12992656030E+03 0.89661732818E+02 0.63609765139E+02
 0.47014531399E+02 0.37232825355E+02 0.32326270759E+02 0.31689757547E+02 0.35828646947E+02
 0.46635736461E+02 0.67010674123E+02 0.10238350209E+03 0.16133994738E+03 0.25122396456E+03
 0.36733484904E+03 0.46837574210E+03 0.41931503284E+03 0.15718959092E+03 -.11829483472E+03
 -.11682528188E+03 0.16795012353E+03 0.44607347237E+03 0.50226454091E+03 0.39334602076E+03
 0.26653380545E+03 0.16854068603E+03 0.10476148474E+03 0.67001829142E+02 0.45775507747E+02
 0.34907636584E+02 0.31476253278E+02 0.34447292072E+02 0.44615116603E+02 0.64592384112E+02
 0.99727965199E+02 0.15845371020E+03 0.24857357153E+03 0.36718100913E+03 0.48390576383E+03
 0.49296773230E+03 0.32613624572E+03 0.12298258784E+03 0.39612493379E+03 0.46195090054E+03
 0.50302265887E+03 0.45476325432E+03 0.36252016908E+03 0.27058784456E+03 0.19565262646E+03
 0.14072002954E+03 0.10243064735E+03 0.76051651717E+02 0.58174950955E+02 0.46777848923E+02
 0.40263390803E+02 0.38064585534E+02 0.40664908678E+02 0.49686303832E+02 0.67649570988E+02
 0.99299870733E+02 0.15217731478E+03 0.23324002986E+03 0.33969165139E+03 0.44376898122E+03
 0.45138493112E+03 0.30370847312E+03 0.13847418310E+03 0.15760772279E+03 0.35248502056E+03
 0.51200243957E+03 0.49938591370E+03 0.38018006970E+03 0.25934800668E+03 0.16744118448E+03
 0.10750006892E+03 0.71647638548E+02 0.51303835868E+02 0.40945855357E+02 0.37859820737E+02
 0.41119954717E+02 0.51502130508E+02 0.71341713725E+02 0.10501891333E+03 0.15904874118E+03
 0.23936474919E+03 0.34421514504E+03 0.45551237589E+03 0.52426632012E+03 0.49206161527E+03
 0.41083988454E+03 0.47393030604E+03 0.47014295749E+03 0.44498801919E+03 0.39097330826E+03
 0.32351751109E+03 0.25731712078E+03 0.20098957919E+03 0.15672628198E+03 0.12316575734E+03
 0.97795036014E+02 0.78843730627E+02 0.65364709032E+02 0.56620785757E+02 0.52416479308E+02
 0.53271914904E+02 0.60463796769E+02 0.76041972726E+02 0.10374109641E+03 0.14924162754E+03
 0.21799173537E+03 0.30910767064E+03 0.40707151344E+03 0.47177369990E+03 0.45535180768E+03
 0.40910943170E+03 0.42874844997E+03 0.50462571297E+03 0.53109522647E+03 0.46016727620E+03
 0.34906613533E+03 0.24542345912E+03 0.16678827562E+03 0.11440613699E+03 0.82072333738E+02
 0.63217502464E+02 0.53512067355E+02 0.50733545104E+02 0.54176143155E+02 0.64512912837E+02
 0.83532312414E+02 0.11419542634E+03 0.16047457222E+03 0.22548261503E+03 0.30716867123E+03
 0.39373533099E+03 0.46391836088E+03 0.49361846679E+03 0.48472603500E+03 0.37925373137E+03
 0.36508088566E+03 0.34264540068E+03 0.31117015325E+03 0.27456406143E+03 0.23798249913E+03
 0.20489178829E+03 0.17660790606E+03 0.15257982936E+03 0.13152505886E+03 0.11298191308E+03
 0.97500995597E+02 0.85865047751E+02 0.78825579294E+02 0.77130333352E+02 0.81631195788E+02
 0.93636596532E+02 0.11557875315E+03 0.15094585095E+03 0.20290145184E+03 0.27102665788E+03
 0.34686407570E+03 0.41422248758E+03 0.45572632982E+03 0.47128249906E+03 0.48367687591E+03
 0.48759403718E+03 0.45377764570E+03 0.38371229243E+03 0.30067697996E+03 0.22479732629E+03
 0.16634248662E+03 0.12596307670E+03 0.99839689733E+02 0.83833513131E+02 0.75244655597E+02
 0.72772647126E+02 0.76093297067E+02 0.85644629414E+02 0.10232892269E+03 0.12744375118E+03
 0.16252848112E+03 0.20815125761E+03 0.26169534946E+03 0.31577748419E+03 0.35924997126E+03
 0.38290104943E+03 0.38688395344E+03 0.25843413138E+03 0.25096684137E+03 0.24258240123E+03
 0.23348690095E+03 0.22414544684E+03 0.21523645247E+03 0.20738145063E+03 0.20030981972E+03
 0.19230055453E+03 0.18128024080E+03 0.16680563467E+03 0.15070751900E+03 0.13584478761E+03
 0.12464481967E+03 0.11844123145E+03 0.11769182550E+03 0.12285691927E+03 0.13517420734E+03
 0.15641854435E+03 0.18783228891E+03 0.22864839363E+03 0.27448975241E+03 0.31745186363E+03
 0.34981642173E+03 0.36865170854E+03 0.37435279886E+03 0.36490905733E+03 0.33717486992E+03
 0.29416304460E+03 0.24578445579E+03 0.20205268711E+03 0.16806883956E+03 0.14412802722E+03
 0.12798184113E+03 0.11722295877E+03 0.11075887193E+03 0.10858646661E+03 0.11095026320E+03
 0.11796282653E+03 0.12950790508E+03 0.14543375444E+03 0.16576619136E+03 0.19002263244E+03
 0.21606951849E+03 0.23996329480E+03 0.25715263575E+03 0.26485002884E+03 0.26405256550E+03
 0.16347998124E+03 0.16177197687E+03 0.16363128520E+03 0.16948150460E+03 0.17923655510E+03
 0.19275597363E+03 0.20965968120E+03 0.22799004260E+03 0.24335441029E+03 0.25049807158E+03
 0.24658330211E+03 0.23332238987E+03 0.21578516337E+03 0.19888275015E+03 0.18488973588E+03
 0.17399296096E+03 0.16631512645E+03 0.16294121249E+03 0.16532645446E+03 0.17412304087E+03
 0.18848883076E+03 0.20607203460E+03 0.22353445940E+03 0.23755390496E+03 0.24590896504E+03
 0.24769527297E+03 0.24250232667E+03 0.23044253204E+03 0.21368855750E+03 0.19655656695E+03
 0.18314345087E+03 0.17530958272E+03 0.17226629268E+03 0.17128955720E+03 0.16986215826E+03
 0.16763171675E+03 0.16578449962E+03 0.16526934817E+03 0.16612202712E+03 0.16768271395E+03
 0.16937849776E+03 0.17136615762E+03 0.17391350708E+03 0.17642645280E+03 0.17758307533E+03
 0.17628823941E+03 0.17254271687E+03 0.16763705652E+03 0.10101804950E+03 0.10233150825E+03
 0.10907543208E+03 0.12233257023E+03 0.14326298408E+03 0.17309380403E+03 0.21225257636E+03
 0.25817233209E+03 0.30365085875E+03 0.33824851625E+03 0.35317169777E+03 0.34731163191E+03
 0.32825508706E+03 0.30483785371E+03 0.28000310961E+03 0.25293203508E+03 0.22452450042E+03
 0.19814311676E+03 0.17711269756E+03 0.16290937638E+03 0.15495589219E+03 0.15152366578E+03
 0.15078570434E+03 0.15126405667E+03 0.15183178474E+03 0.15190418345E+03 0.15159695462E+03
 0.15165261102E+03 0.15360881804E+03 0.15974153123E+03 0.17206542941E+03 0.19085896029E+03
 0.21338034179E+03 0.23409665187E+03 0.24779453317E+03 0.25300247479E+03 0.25151475813E+03