 vasp.5.4.4.18Apr17-6-g9f103f2a35 (build Sep 15 2021 12:59:37) complex           
 executed on             LinuxGNU date 2022.10.04  11:27:47
 running on   16 total cores
 distrk:  each k-point on    4 cores,    4 groups
 distr:  one band on NCORES_PER_BAND=   4 cores,    1 groups


--------------------------------------------------------------------------------------------------------


 INCAR:
 POTCAR:    PAW_PBE Si 05Jan2001                  

 ----------------------------------------------------------------------------- 
|                                                                             |
|           W    W    AA    RRRRR   N    N  II  N    N   GGGG   !!!           |
|           W    W   A  A   R    R  NN   N  II  NN   N  G    G  !!!           |
|           W    W  A    A  R    R  N N  N  II  N N  N  G       !!!           |
|           W WW W  AAAAAA  RRRRR   N  N N  II  N  N N  G  GGG   !            |
|           WW  WW  A    A  R   R   N   NN  II  N   NN  G    G                |
|           W    W  A    A  R    R  N    N  II  N    N   GGGG   !!!           |
|                                                                             |
|      You have enabled k-point parallelism (KPAR>1).                         |
|      This developmental code was originally  written by Paul Kent at ORNL,  |
|      and carefully double checked in Vienna.                                |
|      GW as well as linear response parallelism added by Martijn Marsman     |
|      and Georg Kresse.                                                      |
|      Carefully verify results versus KPAR=1.                                |
|      Report problems to Paul Kent and Vienna.                               |
|                                                                             |
 ----------------------------------------------------------------------------- 

 POTCAR:    PAW_PBE Si 05Jan2001                  
   VRHFIN =Si: s2p2                                                             
   LEXCH  = PE                                                                  
   EATOM  =   103.0669 eV,    7.5752 Ry                                         
                                                                                
   TITEL  = PAW_PBE Si 05Jan2001                                                
   LULTRA =        F    use ultrasoft PP ?                                      
   IUNSCR =        1    unscreen: 0-lin 1-nonlin 2-no                           
   RPACOR =    1.500    partial core radius                                     
   POMASS =   28.085; ZVAL   =    4.000    mass and valenz                      
   RCORE  =    1.900    outmost cutoff radius                                   
   RWIGS  =    2.480; RWIGS  =    1.312    wigner-seitz radius (au A)           
   ENMAX  =  245.345; ENMIN  =  184.009 eV                                      
   ICORE  =        2    local potential                                         
   LCOR   =        T    correct aug charges                                     
   LPAW   =        T    paw PP                                                  
   EAUG   =  322.069                                                            
   DEXC   =    0.000                                                            
   RMAX   =    1.950    core radius for proj-oper                               
   RAUG   =    1.300    factor for augmentation sphere                          
   RDEP   =    1.993    radius for radial grids                                 
   RDEPT  =    1.837    core radius for aug-charge                              
                                                                                
   Atomic configuration                                                         
    6 entries                                                                   
     n  l   j            E        occ.                                          
     1  0  0.50     -1785.8828   2.0000                                         
     2  0  0.50      -139.4969   2.0000                                         
     2  1  1.50       -95.5546   6.0000                                         
     3  0  0.50       -10.8127   2.0000                                         
     3  1  0.50        -4.0811   2.0000                                         
     3  2  1.50        -4.0817   0.0000                                         
   Description                                                                  
     l       E           TYP  RCUT    TYP  RCUT                                 
     0    -10.8127223     23  1.900                                             
     0     -7.6451159     23  1.900                                             
     1     -4.0811372     23  1.900                                             
     1      2.4879257     23  1.900                                             
     2     -4.0817478      7  1.900                                             
  local pseudopotential read in
  partial core-charges read in
  partial kinetic energy density read in
  atomic valenz-charges read in
  non local Contribution for L=           0  read in
    real space projection operators read in
  non local Contribution for L=           0  read in
    real space projection operators read in
  non local Contribution for L=           1  read in
    real space projection operators read in
  non local Contribution for L=           1  read in
    real space projection operators read in
    PAW grid and wavefunctions read in

   number of l-projection  operators is LMAX  =           4
   number of lm-projection operators is LMMAX =           8

 Optimization of the real space projectors (new method)

 maximal supplied QI-value         = 19.84
 optimisation between [QCUT,QGAM] = [  7.94, 16.07] = [ 17.64, 72.34] Ry 
 Optimized for a Real-space Cutoff    1.22 Angstroem

   l    n(q)    QCUT    max X(q) W(low)/X(q) W(high)/X(q)  e(spline) 
   0      6     7.937   159.560    0.56E-03    0.15E-02    0.73E-07
   0      6     7.937   115.863    0.56E-03    0.15E-02    0.72E-07
   1      5     7.937    88.339    0.41E-02    0.34E-02    0.59E-07
   1      5     7.937    48.592    0.40E-02    0.33E-02    0.57E-07

 ----------------------------------------------------------------------------- 
|                                                                             |
|  ADVICE TO THIS USER RUNNING 'VASP/VAMP'   (HEAR YOUR MASTER'S VOICE ...):  |
|                                                                             |
|      You enforced a specific xc-type in the INCAR file,                     |
|      a different type was found on the POTCAR file                          |
|          I HOPE YOU KNOW, WHAT YOU ARE  DOING                               |
|                                                                             |
 ----------------------------------------------------------------------------- 

  PAW_PBE Si 05Jan2001                  :
 energy of atom  1       EATOM= -103.0669
 kinetic energy error for atom=    0.0052 (will be added to EATOM!!)


 POSCAR: Si cubic diamond 2x2x2 super cell of con
  positions in direct lattice
  velocities in cartesian coordinates
 exchange correlation table for  LEXCH =       14
   RHO(1)=    0.500       N(1)  =     2000
   RHO(2)=  100.500       N(2)  =     4000



--------------------------------------------------------------------------------------------------------


 ion  position               nearest neighbor table
   1  0.009  0.003  1.000-  63 2.30  14 2.32  41 2.32  28 2.41
   2  0.510  0.984  0.996-  27 2.32  64 2.35  42 2.41  13 2.50
   3  0.991  0.502  0.002-  26 2.30  43 2.30  16 2.35  61 2.47
   4  0.494  0.500  1.000-  15 2.30  25 2.30  62 2.31  44 2.43
   5  0.003  0.990  0.495-  45 2.28  32 2.31  59 2.35  10 2.41
   6  0.489  0.018  0.514-  46 2.21   9 2.35  31 2.39  60 2.50
   7  0.010  0.483  0.515-  30 2.32  57 2.34  47 2.35  12 2.39
   8  0.502  0.515  0.500-  58 2.28  48 2.33  11 2.34  29 2.41
   9  0.369  0.130  0.374-  33 2.29  53 2.29   6 2.35  18 2.38
  10  0.875  0.123  0.371-  34 2.25  54 2.29   5 2.41  17 2.42
  11  0.382  0.629  0.363-  20 2.28   8 2.34  35 2.36  55 2.38
  12  0.882  0.607  0.385-  19 2.34   7 2.39  56 2.41  36 2.49
  13  0.372  0.127  0.880-  22 2.30  49 2.35  37 2.39   2 2.50
  14  0.885  0.133  0.884-  21 2.27   1 2.32  50 2.34  38 2.49
  15  0.371  0.619  0.876-  39 2.22   4 2.30  51 2.33  24 2.37
  16  0.869  0.626  0.873-  40 2.21   3 2.35  52 2.37  23 2.39
  17  0.004  0.245  0.235-  41 2.28  26 2.35  57 2.41  10 2.42
  18  0.501  0.248  0.245-  42 2.27  25 2.33   9 2.38  58 2.45
  19  0.991  0.737  0.252-  12 2.34  43 2.36  59 2.40  28 2.43
  20  0.509  0.752  0.249-  60 2.28  11 2.28  44 2.31  27 2.35
  21  0.998  0.246  0.749-  14 2.27  45 2.35  30 2.38  61 2.39
  22  0.503  0.238  0.754-  13 2.30  46 2.34  62 2.37  29 2.49
  23  0.992  0.754  0.742-  16 2.39  32 2.40  47 2.44  63 2.45
  24  0.493  0.748  0.748-  31 2.30  64 2.34  48 2.35  15 2.37
  25  0.377  0.373  0.122-  49 2.26   4 2.30  18 2.33  35 2.43
  26  0.873  0.374  0.121-   3 2.30  50 2.33  36 2.33  17 2.35
  27  0.380  0.877  0.128-   2 2.32  33 2.35  20 2.35  51 2.43
  28  0.875  0.885  0.131-  52 2.27   1 2.41  34 2.43  19 2.43
  29  0.378  0.375  0.619-  53 2.34   8 2.41  39 2.41  22 2.49
  30  0.867  0.376  0.631-  40 2.28  54 2.31   7 2.32  21 2.38
  31  0.370  0.880  0.638-  37 2.29  24 2.30  55 2.36   6 2.39
  32  0.864  0.881  0.614-  56 2.30   5 2.31  38 2.38  23 2.40
  33  0.255  0.002  0.252-   9 2.29  41 2.33  27 2.35  59 2.43
  34  0.742  0.008  0.261-  10 2.25  42 2.33  60 2.41  28 2.43
  35  0.246  0.506  0.245-  43 2.35  11 2.36  57 2.41  25 2.43
  36  0.743  0.494  0.242-  44 2.28  26 2.33  58 2.36  12 2.49
  37  0.242  0.002  0.754-  31 2.29  63 2.35  13 2.39  45 2.43
  38  0.747  0.009  0.748-  32 2.38  46 2.39  64 2.41  14 2.49
  39  0.256  0.507  0.749-  15 2.22  47 2.32  61 2.37  29 2.41
  40  0.756  0.505  0.755-  16 2.21  30 2.28  48 2.32  62 2.42
  41  0.134  0.124  0.124-  17 2.28  49 2.29   1 2.32  33 2.33
  42  0.621  0.124  0.128-  18 2.27  34 2.33  50 2.35   2 2.41
  43  0.119  0.625  0.117-  51 2.29   3 2.30  35 2.35  19 2.36
  44  0.628  0.627  0.126-  36 2.28  20 2.31  52 2.40   4 2.43
  45  0.114  0.121  0.615-   5 2.28  21 2.35  53 2.38  37 2.43
  46  0.625  0.132  0.612-   6 2.21  54 2.33  22 2.34  38 2.39
  47  0.132  0.626  0.622-  39 2.32   7 2.35  55 2.36  23 2.44
  48  0.629  0.626  0.632-  40 2.32   8 2.33  24 2.35  56 2.41
  49  0.251  0.254  0.006-  25 2.26  41 2.29  13 2.35  61 2.41
  50  0.747  0.247  0.003-  26 2.33  14 2.34  42 2.35  62 2.45
  51  0.252  0.742  0.004-  43 2.29  15 2.33  63 2.38  27 2.43
  52  0.761  0.758  0.009-  28 2.27  64 2.37  16 2.37  44 2.40
  53  0.250  0.250  0.500-   9 2.29  29 2.34  57 2.34  45 2.38
  54  0.762  0.249  0.496-  10 2.29  30 2.31  46 2.33  58 2.48
  55  0.263  0.750  0.501-  31 2.36  47 2.36  59 2.37  11 2.38
  56  0.751  0.749  0.494-  32 2.30  60 2.36  12 2.41  48 2.41
  57  0.126  0.370  0.372-  53 2.34   7 2.34  35 2.41  17 2.41
  58  0.618  0.385  0.382-   8 2.28  36 2.36  18 2.45  54 2.48
  59  0.127  0.863  0.372-   5 2.35  55 2.37  19 2.40  33 2.43
  60  0.613  0.875  0.383-  20 2.28  56 2.36  34 2.41   6 2.50
  61  0.128  0.378  0.869-  39 2.37  21 2.39  49 2.41   3 2.47
  62  0.617  0.379  0.875-   4 2.31  22 2.37  40 2.42  50 2.45
  63  0.125  0.872  0.880-   1 2.30  37 2.35  51 2.38  23 2.45
  64  0.632  0.861  0.866-  24 2.34   2 2.35  52 2.37  38 2.41


IMPORTANT INFORMATION: All symmetrisations will be switched off!
NOSYMM: (Re-)initialisation of all symmetry stuff for point group C_1.



 KPOINTS: K-Points                                

Automatic generation of k-mesh.
Space group operators:
 irot       det(A)        alpha          n_x          n_y          n_z        tau_x        tau_y        tau_z
    1     1.000000     0.000000     1.000000     0.000000     0.000000     0.000000     0.000000     0.000000
 
 Subroutine IBZKPT returns following result:
 ===========================================
 
 Found      1 irreducible k-points:
 
 Following reciprocal coordinates:
            Coordinates               Weight
  0.000000  0.000000  0.000000      1.000000
 
 Following cartesian coordinates:
            Coordinates               Weight
  0.000000  0.000000  0.000000      1.000000
 


--------------------------------------------------------------------------------------------------------




 Dimension of arrays:
   k-points           NKPTS =      1   k-points in BZ     NKDIM =      1   number of bands    NBANDS=    161
   number of dos      NEDOS =    301   number of ions     NIONS =     64
   non local maximal  LDIM  =      4   non local SUM 2l+1 LMDIM =      8
   total plane-waves  NPLWV =  74088
   max r-space proj   IRMAX =    494   max aug-charges    IRDMAX=    560
   dimension x,y,z NGX =    42 NGY =   42 NGZ =   42
   dimension x,y,z NGXF=    48 NGYF=   48 NGZF=   48
   support grid    NGXF=    48 NGYF=   48 NGZF=   48
   ions per type =              64
   NGX,Y,Z   is equivalent  to a cutoff of   6.43,  6.43,  6.43 a.u.
   NGXF,Y,Z  is equivalent  to a cutoff of   7.35,  7.35,  7.35 a.u.

 SYSTEM =  si_2x2x2                                
 POSCAR =  Si cubic diamond 2x2x2 super cell of con

 Startparameter for this run:
   NWRITE =      2    write-flag & timer
   PREC   = low       normal or accurate (medium, high low for compatibility)
   ISTART =      1    job   : 0-new  1-cont  2-samecut
   ICHARG =      0    charge: 1-file 2-atom 10-const
   ISPIN  =      1    spin polarized calculation?
   LNONCOLLINEAR =      F non collinear calculations
   LSORBIT =      F    spin-orbit coupling
   INIWAV =      1    electr: 0-lowe 1-rand  2-diag
   LASPH  =      F    aspherical Exc in radial PAW
   METAGGA=      F    non-selfconsistent MetaGGA calc.

 Electronic Relaxation 1
   ENCUT  =  250.0 eV  18.37 Ry    4.29 a.u.  14.00 14.00 14.00*2*pi/ulx,y,z
   ENINI  =  250.0     initial cutoff
   ENAUG  =  322.1 eV  augmentation charge cutoff
   NELM   =    150;   NELMIN=  2; NELMDL=  0     # of ELM steps 
   EDIFF  = 0.1E-05   stopping-criterion for ELM
   LREAL  =      T    real-space projection
   NLSPLINE    = F    spline interpolate recip. space projectors
   LCOMPAT=      F    compatible to vasp.4.4
   GGA_COMPAT  = T    GGA compatible to vasp.4.4-vasp.4.6
   LMAXPAW     = -100 max onsite density
   LMAXMIX     =    2 max onsite mixed and CHGCAR
   VOSKOWN=      0    Vosko Wilk Nusair interpolation
   ROPT   =   -0.01000
 Ionic relaxation
   EDIFFG = 0.1E-04   stopping-criterion for IOM
   NSW    =    100    number of steps for IOM
   NBLOCK =      1;   KBLOCK =    100    inner block; outer block 
   IBRION =      0    ionic relax: 0-MD 1-quasi-New 2-CG
   NFREE  =      0    steps in history (QN), initial steepest desc. (CG)
   ISIF   =      3    stress and relaxation
   IWAVPR =     12    prediction:  0-non 1-charg 2-wave 3-comb
   ISYM   =      0    0-nonsym 1-usesym 2-fastsym
   LCORR  =      T    Harris-Foulkes like correction to forces

   POTIM  = 3.0000    time-step for ionic-motion
   TEIN   =  445.3    initial temperature
   TEBEG  =  600.0;   TEEND  = 600.0 temperature during run
   SMASS  =   1.00    Nose mass-parameter (am)
   estimated Nose-frequenzy (Omega)   =  0.40E+14 period in steps = 52.39 mass=   0.899E-27a.u.
   SCALEE = 1.0000    scale energy and forces
   NPACO  =    256;   APACO  = 16.0  distance and # of slots for P.C.
   PSTRESS=    0.0 pullay stress

  Mass of Ions in am
   POMASS =  28.09
  Ionic Valenz
   ZVAL   =   4.00
  Atomic Wigner-Seitz radii
   RWIGS  =  -1.00
  virtual crystal weights 
   VCA    =   1.00
   NELECT =     256.0000    total number of electrons
   NUPDOWN=      -1.0000    fix difference up-down

 DOS related values:
   EMIN   =  10.00;   EMAX   =-10.00  energy-range for DOS
   EFERMI =   0.00
   ISMEAR =     0;   SIGMA  =   0.10  broadening in eV -4-tet -1-fermi 0-gaus

 Electronic relaxation 2 (details)
   IALGO  =     48    algorithm
   LDIAG  =      T    sub-space diagonalisation (order eigenvalues)
   LSUBROT=      F    optimize rotation matrix (better conditioning)
   TURBO    =      0    0=normal 1=particle mesh
   IRESTART =      0    0=no restart 2=restart with 2 vectors
   NREBOOT  =      0    no. of reboots
   NMIN     =      0    reboot dimension
   EREF     =   0.00    reference energy to select bands
   IMIX   =      4    mixing-type and parameters
     AMIX     =   0.40;   BMIX     =  1.00
     AMIX_MAG =   1.60;   BMIX_MAG =  1.00
     AMIN     =   0.10
     WC   =   100.;   INIMIX=   1;  MIXPRE=   1;  MAXMIX= -45

 Intra band minimization:
   WEIMIN = 0.0010     energy-eigenvalue tresh-hold
   EBREAK =  0.16E-08  absolut break condition
   DEPER  =   0.30     relativ break condition  

   TIME   =   0.40     timestep for ELM

  volume/ion in A,a.u.               =      20.02       135.12
  Fermi-wavevector in a.u.,A,eV,Ry     =   0.957017  1.808500 12.461327  0.915882
  Thomas-Fermi vector in A             =   2.085997

 Write flags
   LWAVE        =      T    write WAVECAR
   LDOWNSAMPLE  =      F    k-point downsampling of WAVECAR
   LCHARG       =      T    write CHGCAR
   LVTOT        =      F    write LOCPOT, total local potential
   LVHAR        =      F    write LOCPOT, Hartree potential only
   LELF         =      F    write electronic localiz. function (ELF)
   LORBIT       =      0    0 simple, 1 ext, 2 COOP (PROOUT), +10 PAW based schemes


 Dipole corrections
   LMONO  =      F    monopole corrections only (constant potential shift)
   LDIPOL =      F    correct potential (dipole corrections)
   IDIPOL =      0    1-x, 2-y, 3-z, 4-all directions 
   EPSILON=  1.0000000 bulk dielectric constant

 Exchange correlation treatment:
   GGA     =    PS    GGA type
   LEXCH   =    14    internal setting for exchange type
   VOSKOWN=      0    Vosko Wilk Nusair interpolation
   LHFCALC =     F    Hartree Fock is set to
   LHFONE  =     F    Hartree Fock one center treatment
   AEXX    =    0.0000 exact exchange contribution

 Linear response parameters
   LEPSILON=     F    determine dielectric tensor
   LRPA    =     F    only Hartree local field effects (RPA)
   LNABLA  =     F    use nabla operator in PAW spheres
   LVEL    =     F    velocity operator in full k-point grid
   LINTERFAST=   F  fast interpolation
   KINTER  =     0    interpolate to denser k-point grid
   CSHIFT  =0.1000    complex shift for real part using Kramers Kronig
   OMEGAMAX=  -1.0    maximum frequency
   DEG_THRESHOLD= 0.2000000E-02 threshold for treating states as degnerate
   RTIME   =   -0.100 relaxation time in fs
  (WPLASMAI=    0.000 imaginary part of plasma frequency in eV, 0.658/RTIME)
   DFIELD  = 0.0000000 0.0000000 0.0000000 field for delta impulse in time

 Orbital magnetization related:
   ORBITALMAG=     F  switch on orbital magnetization
   LCHIMAG   =     F  perturbation theory with respect to B field
   DQ        =  0.001000  dq finite difference perturbation B field
   LLRAUG    =     F  two centre corrections for induced B field



--------------------------------------------------------------------------------------------------------


 molecular dynamics for ions
   using nose mass (canonical ensemble)
 charge density and potential will be updated during run
 non-spin polarized calculation
 RMM-DIIS sequential band-by-band
 perform sub-space diagonalisation
    before iterative eigenvector-optimisation
 modified Broyden-mixing scheme, WC =      100.0
 initial mixing is a Kerker type mixing with AMIX =  0.4000 and BMIX =      1.0000
 Hartree-type preconditioning will be used
 using additional bands           33
 real space projection scheme for non local part
 use partial core corrections
 calculate Harris-corrections to forces   (improved forces if not selfconsistent)
 use gradient corrections 
 use of overlap-Matrix (Vanderbilt PP)
 Gauss-broadening in eV      SIGMA  =   0.10


--------------------------------------------------------------------------------------------------------


  energy-cutoff  :      250.00
  volume of cell :     1281.46
      direct lattice vectors                 reciprocal lattice vectors
    10.861800000  0.000000000  0.000000000     0.092065772  0.000000000  0.000000000
     0.000000000 10.861800000  0.000000000     0.000000000  0.092065772  0.000000000
     0.000000000  0.000000000 10.861800000     0.000000000  0.000000000  0.092065772

  length of vectors
    10.861800000 10.861800000 10.861800000     0.092065772  0.092065772  0.092065772



 old parameters found on file WAVECAR:
  energy-cutoff  :      250.00
  volume of cell :     1281.46
      direct lattice vectors                 reciprocal lattice vectors
    10.861800000  0.000000000  0.000000000     0.092065772  0.000000000  0.000000000
     0.000000000 10.861800000  0.000000000     0.000000000  0.092065772  0.000000000
     0.000000000  0.000000000 10.861800000     0.000000000  0.000000000  0.092065772

  length of vectors


 k-points in units of 2pi/SCALE and weight: K-Points                                
   0.00000000  0.00000000  0.00000000       1.000

 k-points in reciprocal lattice and weights: K-Points                                
   0.00000000  0.00000000  0.00000000       1.000

 position of ions in fractional coordinates (direct lattice) 
   0.00913475  0.00306694  0.99955124
   0.51035749  0.98353185  0.99623598
   0.99119431  0.50236888  0.00162551
   0.49416598  0.49995237  0.99962929
   0.00290396  0.98994698  0.49476542
   0.48907612  0.01760360  0.51412988
   0.00987047  0.48295459  0.51462205
   0.50232125  0.51453045  0.49961190
   0.36923159  0.13027147  0.37364894
   0.87541657  0.12305672  0.37051264
   0.38182184  0.62857477  0.36279993
   0.88237489  0.60681759  0.38519414
   0.37248392  0.12725335  0.88035897
   0.88471669  0.13269141  0.88373552
   0.37117882  0.61904492  0.87567374
   0.86949168  0.62639411  0.87263117
   0.00404341  0.24535861  0.23533788
   0.50099889  0.24843653  0.24524058
   0.99085786  0.73735323  0.25221281
   0.50857918  0.75170550  0.24906852
   0.99791882  0.24606384  0.74891084
   0.50257698  0.23757565  0.75443976
   0.99193003  0.75421424  0.74214078
   0.49270773  0.74778955  0.74764171
   0.37682977  0.37263787  0.12212640
   0.87340661  0.37410047  0.12132754
   0.38014307  0.87743433  0.12796724
   0.87501646  0.88463603  0.13064250
   0.37783732  0.37485989  0.61917990
   0.86665021  0.37626978  0.63132652
   0.36960359  0.88023226  0.63820957
   0.86429981  0.88119981  0.61398909
   0.25480491  0.00178618  0.25248312
   0.74236344  0.00796418  0.26130276
   0.24622588  0.50595038  0.24497237
   0.74257836  0.49442015  0.24171906
   0.24240676  0.00229827  0.75410363
   0.74700391  0.00948254  0.74802114
   0.25555552  0.50734896  0.74886070
   0.75555348  0.50521969  0.75483764
   0.13410147  0.12394129  0.12392717
   0.62053255  0.12375046  0.12760015
   0.11852042  0.62525221  0.11739345
   0.62801145  0.62652057  0.12609837
   0.11380014  0.12142968  0.61490849
   0.62483940  0.13247005  0.61221325
   0.13183140  0.62608806  0.62225113
   0.62873202  0.62609493  0.63215898
   0.25069540  0.25418940  0.00624680
   0.74732473  0.24731729  0.00325908
   0.25194374  0.74212424  0.00399314
   0.76121378  0.75849433  0.00894766
   0.24972706  0.24967131  0.50014301
   0.76212812  0.24923470  0.49595038
   0.26324185  0.74966994  0.50109716
   0.75141266  0.74925075  0.49356271
   0.12582591  0.37027153  0.37198627
   0.61784004  0.38480713  0.38162784
   0.12743326  0.86257764  0.37246032
   0.61272045  0.87517713  0.38286339
   0.12780189  0.37759795  0.86867811
   0.61724455  0.37916693  0.87527688
   0.12520399  0.87158651  0.88046243
   0.63224138  0.86091805  0.86610542

 position of ions in cartesian coordinates  (Angst):
   0.09921977  0.03331253 10.85692570
   5.54340099 10.68292620 10.82091602
  10.76615441  5.45663025  0.01765601
   5.36753206  5.43038263 10.85777347
   0.03154228 10.75260610  5.37404309
   5.31224699  0.19120678  5.58437595
   0.10721107  5.24575621  5.58972180
   5.45611293  5.58872680  5.42668449
   4.01051972  1.41498261  4.05850003
   9.50859969  1.33661746  4.02443418
   4.14727243  6.82745346  3.94066030
   9.58417953  6.59113126  4.18390175
   4.04584587  1.38220049  9.56228308
   9.60961575  1.44126751  9.59895844
   4.03167012  6.72394216  9.51139307
   9.44424478  6.80376753  9.47834526
   0.04391866  2.66503611  2.55619297
   5.44174978  2.69846786  2.66375417
  10.76249991  8.00898329  2.73948512
   5.52408538  8.16487485  2.70533248
  10.83919462  2.67269618  8.13451979
   5.45889061  2.58049914  8.19457383
  10.77414559  8.19212428  8.06098474
   5.35169281  8.12234055  8.12073469
   4.09304959  4.04751801  1.32651254
   9.48676793  4.06340452  1.31783547
   4.12903804  9.53051618  1.38995453
   9.50425379  9.60873967  1.41901271
   4.10399338  4.07165319  6.72540821
   9.41338120  4.08696705  6.85734236
   4.01456027  9.56090677  6.93210472
   9.38785168  9.57141613  6.66902672
   2.76763992  0.01940112  2.74242116
   8.06340324  0.08650530  2.83821831
   2.67445625  5.49553184  2.66084092
   8.06573766  5.37029275  2.62550410
   2.63297376  0.02496340  8.19092282
   8.11380702  0.10299749  8.12485600
   2.77579295  5.51072292  8.13397511
   8.20667081  5.48759519  8.19889545
   1.45658339  1.34622555  1.34607208
   6.74010050  1.34415271  1.38596730
   1.28734511  6.79136447  1.27510414
   6.82133481  6.80514115  1.36965525
   1.23607434  1.31894487  6.67901305
   6.78688062  1.43886322  6.64973787
   1.43192626  6.80044331  6.75876730
   6.82916148  6.80051786  6.86638438
   2.72300330  2.76095447  0.06785147
   8.11729175  2.68631097  0.03539942
   2.73656247  8.06080503  0.04337274
   8.26815180  8.23861375  0.09718770
   2.71248536  2.71187985  5.43245333
   8.27808319  2.70713742  5.38691389
   2.85928032  8.14276496  5.44281717
   8.16169407  8.13821181  5.36097948
   1.36669592  4.02181529  4.04044041
   6.71085491  4.17969805  4.14516525
   1.38415458  9.36914579  4.04558951
   6.65524700  9.50599891  4.15858562
   1.38815861  4.10139338  9.43540793
   6.70438681  4.11843537  9.50708242
   1.35994071  9.46699835  9.56340684
   6.86727945  9.35111967  9.40746387



--------------------------------------------------------------------------------------------------------


 k-point  1 :   0.0000 0.0000 0.0000  plane waves:   11513

 maximum and minimum number of plane-waves per node :      2893     2871

 maximum number of plane-waves:     11513
 maximum index in each direction: 
   IXMAX=   14   IYMAX=   14   IZMAX=   14
   IXMIN=  -14   IYMIN=  -14   IZMIN=  -14


 real space projection operators:
  total allocation   :       1726.44 KBytes
  max/ min on nodes  :        448.81        414.56


 parallel 3D FFT for wavefunctions:
    minimum data exchange during FFTs selected (reduces bandwidth)
 parallel 3D FFT for charge:
    minimum data exchange during FFTs selected (reduces bandwidth)


 total amount of memory used by VASP MPI-rank0    42782. kBytes
=======================================================================

   base      :      30000. kBytes
   nonlr-proj:       1044. kBytes
   fftplans  :       1760. kBytes
   grid      :       2147. kBytes
   one-center:         49. kBytes
   wavefun   :       7782. kBytes

     INWAV:  cpu time    0.1989: real time    0.1991
 Broyden mixing: mesh for mixing (old mesh)
   NGX = 29   NGY = 29   NGZ = 29
  (NGX  = 48   NGY  = 48   NGZ  = 48)
  gives a total of  24389 points

 charge density for first step will be calculated from the start-wavefunctions


--------------------------------------------------------------------------------------------------------


 Maximum index for non-local projection operator          149
 Maximum index for augmentation-charges           98 (set IRDMAX)


--------------------------------------------------------------------------------------------------------


 initial charge from wavefunction
 First call to EWALD:  gamma=   0.163
 Maximum number of real-space cells 3x 3x 3
 Maximum number of reciprocal cells 3x 3x 3

    FEWALD:  cpu time    0.0053: real time    0.0053


--------------------------------------- Iteration      1(   1)  ---------------------------------------


    POTLOK:  cpu time    0.0203: real time    0.0203
    SETDIJ:  cpu time    0.0070: real time    0.0070
    EDDIAG:  cpu time    0.1656: real time    0.1657
  RMM-DIIS:  cpu time    0.4151: real time    0.4155
    ORTHCH:  cpu time    0.0408: real time    0.0409
       DOS:  cpu time    0.0007: real time    0.0007
    CHARGE:  cpu time    0.0475: real time    0.0475
    MIXING:  cpu time    0.0013: real time    0.0013
    --------------------------------------------
      LOOP:  cpu time    0.6984: real time    0.6989

 eigenvalue-minimisations  :   322
 total energy-change (2. order) :-0.3581643E+03  (-0.2059319E+01)
 number of electron     255.9997338 magnetization 
 augmentation part      -14.4802193 magnetization 

 Broyden mixing:
  rms(total) = 0.53999E+00    rms(broyden)= 0.53998E+00
  rms(prec ) = 0.83628E+00
  weight for this iteration     100.00

 Free energy of the ion-electron system (eV)
  ---------------------------------------------------
  alpha Z        PSCENC =       107.59920118
  Ewald energy   TEWEN  =     -7309.90995240
  -Hartree energ DENC   =      -478.90464545
  -exchange      EXHF   =         0.00000000
  -V(xc)+E(xc)   XCENC  =      -538.02955268
  PAW double counting   =     33883.76454739   -32784.68581880
  entropy T*S    EENTRO =        -0.04302929
  eigenvalues    EBANDS =       197.50488385
  atomic energy  EATOM  =      6564.54007760
  Solvation  Ediel_sol  =         0.00000000
  ---------------------------------------------------
  free energy    TOTEN  =      -358.16428860 eV

  energy without entropy =     -358.12125930  energy(sigma->0) =     -358.14277395


--------------------------------------------------------------------------------------------------------




--------------------------------------- Iteration      1(   2)  ---------------------------------------


    POTLOK:  cpu time    0.0185: real time    0.0185
    SETDIJ:  cpu time    0.0071: real time    0.0071
    EDDIAG:  cpu time    0.1640: real time    0.1641
  RMM-DIIS:  cpu time    0.4150: real time    0.4152
    ORTHCH:  cpu time    0.0410: real time    0.0410
       DOS:  cpu time    0.0007: real time    0.0007
    CHARGE:  cpu time    0.0475: real time    0.0476
    MIXING:  cpu time    0.0014: real time    0.0014
    --------------------------------------------
      LOOP:  cpu time    0.6953: real time    0.6957

 eigenvalue-minimisations  :   322
 total energy-change (2. order) : 0.1424587E+01  (-0.1513787E+00)
 number of electron     255.9997341 magnetization 
 augmentation part      -14.4815409 magnetization 

 Broyden mixing:
  rms(total) = 0.30334E+00    rms(broyden)= 0.30334E+00
  rms(prec ) = 0.41675E+00
  weight for this iteration     100.00

 eigenvalues of (default mixing * dielectric matrix)
  average eigenvalue GAMMA=   2.0461
  2.0461

 Free energy of the ion-electron system (eV)
  ---------------------------------------------------
  alpha Z        PSCENC =       107.59920118
  Ewald energy   TEWEN  =     -7309.90995240
  -Hartree energ DENC   =      -478.26048421
  -exchange      EXHF   =         0.00000000
  -V(xc)+E(xc)   XCENC  =      -538.07586684
  PAW double counting   =     33650.38137040   -32551.29505185
  entropy T*S    EENTRO =        -0.02604474
  eigenvalues    EBANDS =       198.30704949
  atomic energy  EATOM  =      6564.54007760
  Solvation  Ediel_sol  =         0.00000000
  ---------------------------------------------------
  free energy    TOTEN  =      -356.73970136 eV

  energy without entropy =     -356.71365663  energy(sigma->0) =     -356.72667899


--------------------------------------------------------------------------------------------------------




--------------------------------------- Iteration      1(   3)  ---------------------------------------


    POTLOK:  cpu time    0.0180: real time    0.0180
    SETDIJ:  cpu time    0.0073: real time    0.0073
    EDDIAG:  cpu time    0.1644: real time    0.1645
  RMM-DIIS:  cpu time    0.4201: real time    0.4204
    ORTHCH:  cpu time    0.0424: real time    0.0424
       DOS:  cpu time    0.0007: real time    0.0007
    CHARGE:  cpu time    0.0476: real time    0.0477
    MIXING:  cpu time    0.0018: real time    0.0018
    --------------------------------------------
      LOOP:  cpu time    0.7023: real time    0.7028

 eigenvalue-minimisations  :   322
 total energy-change (2. order) : 0.2129766E+00  (-0.2366770E+00)
 number of electron     255.9997339 magnetization 
 augmentation part      -14.4784143 magnetization 

 Broyden mixing:
  rms(total) = 0.87748E-01    rms(broyden)= 0.87742E-01
  rms(prec ) = 0.11790E+00
  weight for this iteration     100.00

 eigenvalues of (default mixing * dielectric matrix)
  average eigenvalue GAMMA=   1.7823
  1.7823  1.7823

 Free energy of the ion-electron system (eV)
  ---------------------------------------------------
  alpha Z        PSCENC =       107.59920118
  Ewald energy   TEWEN  =     -7309.90995240
  -Hartree energ DENC   =      -478.88516841
  -exchange      EXHF   =         0.00000000
  -V(xc)+E(xc)   XCENC  =      -538.01030476
  PAW double counting   =     33422.62698915   -32323.57284482
  entropy T*S    EENTRO =        -0.02205694
  eigenvalues    EBANDS =       199.10733464
  atomic energy  EATOM  =      6564.54007760
  Solvation  Ediel_sol  =         0.00000000
  ---------------------------------------------------
  free energy    TOTEN  =      -356.52672476 eV

  energy without entropy =     -356.50466782  energy(sigma->0) =     -356.51569629


--------------------------------------------------------------------------------------------------------




--------------------------------------- Iteration      1(   4)  ---------------------------------------


    POTLOK:  cpu time    0.0182: real time    0.0183
    SETDIJ:  cpu time    0.0073: real time    0.0073
    EDDIAG:  cpu time    0.1638: real time    0.1639
  RMM-DIIS:  cpu time    0.4156: real time    0.4159
    ORTHCH:  cpu time    0.0411: real time    0.0411
       DOS:  cpu time    0.0007: real time    0.0007
    CHARGE:  cpu time    0.0472: real time    0.0473
    MIXING:  cpu time    0.0017: real time    0.0017
    --------------------------------------------
      LOOP:  cpu time    0.6956: real time    0.6961

 eigenvalue-minimisations  :   322
 total energy-change (2. order) : 0.2397443E-01  (-0.1218761E-01)
 number of electron     255.9997340 magnetization 
 augmentation part      -14.4778054 magnetization 

 Broyden mixing:
  rms(total) = 0.53231E-01    rms(broyden)= 0.53230E-01
  rms(prec ) = 0.59323E-01
  weight for this iteration     100.00

 eigenvalues of (default mixing * dielectric matrix)
  average eigenvalue GAMMA=   1.7988
  2.7583  1.3190  1.3190

 Free energy of the ion-electron system (eV)
  ---------------------------------------------------
  alpha Z        PSCENC =       107.59920118
  Ewald energy   TEWEN  =     -7309.90995240
  -Hartree energ DENC   =      -479.06311292
  -exchange      EXHF   =         0.00000000
  -V(xc)+E(xc)   XCENC  =      -537.98790510
  PAW double counting   =     33419.85034321   -32320.80041120
  entropy T*S    EENTRO =        -0.02419711
  eigenvalues    EBANDS =       199.29320642
  atomic energy  EATOM  =      6564.54007760
  Solvation  Ediel_sol  =         0.00000000
  ---------------------------------------------------
  free energy    TOTEN  =      -356.50275033 eV

  energy without entropy =     -356.47855322  energy(sigma->0) =     -356.49065178


--------------------------------------------------------------------------------------------------------




--------------------------------------- Iteration      1(   5)  ---------------------------------------


    POTLOK:  cpu time    0.0181: real time    0.0181
    SETDIJ:  cpu time    0.0071: real time    0.0071
    EDDIAG:  cpu time    0.1635: real time    0.1636
  RMM-DIIS:  cpu time    0.4163: real time    0.4166
    ORTHCH:  cpu time    0.0410: real time    0.0410
       DOS:  cpu time    0.0007: real time    0.0007
    CHARGE:  cpu time    0.0472: real time    0.0473
    MIXING:  cpu time    0.0018: real time    0.0018
    --------------------------------------------
      LOOP:  cpu time    0.6958: real time    0.6963

 eigenvalue-minimisations  :   324
 total energy-change (2. order) : 0.1875861E-02  (-0.2014861E-02)
 number of electron     255.9997340 magnetization 
 augmentation part      -14.4769891 magnetization 

 Broyden mixing:
  rms(total) = 0.98804E-02    rms(broyden)= 0.98797E-02
  rms(prec ) = 0.14984E-01
  weight for this iteration     100.00

 eigenvalues of (default mixing * dielectric matrix)
  average eigenvalue GAMMA=   1.6164
  2.1729  1.2302  1.5312  1.5312

 Free energy of the ion-electron system (eV)
  ---------------------------------------------------
  alpha Z        PSCENC =       107.59920118
  Ewald energy   TEWEN  =     -7309.90995240
  -Hartree energ DENC   =      -479.27717441
  -exchange      EXHF   =         0.00000000
  -V(xc)+E(xc)   XCENC  =      -537.96598796
  PAW double counting   =     33373.57992362   -32274.53649904
  entropy T*S    EENTRO =        -0.02409016
  eigenvalues    EBANDS =       199.49362710
  atomic energy  EATOM  =      6564.54007760
  Solvation  Ediel_sol  =         0.00000000
  ---------------------------------------------------
  free energy    TOTEN  =      -356.50087447 eV

  energy without entropy =     -356.47678431  energy(sigma->0) =     -356.48882939


--------------------------------------------------------------------------------------------------------




--------------------------------------- Iteration      1(   6)  ---------------------------------------


    POTLOK:  cpu time    0.0182: real time    0.0182
    SETDIJ:  cpu time    0.0072: real time    0.0072
    EDDIAG:  cpu time    0.1645: real time    0.1647
  RMM-DIIS:  cpu time    0.4195: real time    0.4198
    ORTHCH:  cpu time    0.0410: real time    0.0410
       DOS:  cpu time    0.0007: real time    0.0007
    CHARGE:  cpu time    0.0475: real time    0.0475
    MIXING:  cpu time    0.0020: real time    0.0020
    --------------------------------------------
      LOOP:  cpu time    0.7005: real time    0.7011

 eigenvalue-minimisations  :   326
 total energy-change (2. order) : 0.4558699E-03  (-0.1193729E-03)
 number of electron     255.9997341 magnetization 
 augmentation part      -14.4771490 magnetization 

 Broyden mixing:
  rms(total) = 0.49679E-02    rms(broyden)= 0.49678E-02
  rms(prec ) = 0.74443E-02
  weight for this iteration     100.00

 eigenvalues of (default mixing * dielectric matrix)
  average eigenvalue GAMMA=   1.6770
  2.7164  2.0413  1.3002  1.3002  1.0269

 Free energy of the ion-electron system (eV)
  ---------------------------------------------------
  alpha Z        PSCENC =       107.59920118
  Ewald energy   TEWEN  =     -7309.90995240
  -Hartree energ DENC   =      -479.23755030
  -exchange      EXHF   =         0.00000000
  -V(xc)+E(xc)   XCENC  =      -537.97055550
  PAW double counting   =     33381.63350543   -32282.58729122
  entropy T*S    EENTRO =        -0.02394534
  eigenvalues    EBANDS =       199.45609196
  atomic energy  EATOM  =      6564.54007760
  Solvation  Ediel_sol  =         0.00000000
  ---------------------------------------------------
  free energy    TOTEN  =      -356.50041860 eV

  energy without entropy =     -356.47647326  energy(sigma->0) =     -356.48844593


--------------------------------------------------------------------------------------------------------




--------------------------------------- Iteration      1(   7)  ---------------------------------------


    POTLOK:  cpu time    0.0185: real time    0.0186
    SETDIJ:  cpu time    0.0070: real time    0.0070
    EDDIAG:  cpu time    0.1639: real time    0.1640
  RMM-DIIS:  cpu time    0.4217: real time    0.4221
    ORTHCH:  cpu time    0.0412: real time    0.0413
       DOS:  cpu time    0.0007: real time    0.0007
    CHARGE:  cpu time    0.0471: real time    0.0472
    MIXING:  cpu time    0.0025: real time    0.0025
    --------------------------------------------
      LOOP:  cpu time    0.7028: real time    0.7034

 eigenvalue-minimisations  :   322
 total energy-change (2. order) : 0.6134772E-04  (-0.8790284E-04)
 number of electron     255.9997341 magnetization 
 augmentation part      -14.4771483 magnetization 

 Broyden mixing:
  rms(total) = 0.18504E-02    rms(broyden)= 0.18503E-02
  rms(prec ) = 0.29283E-02
  weight for this iteration     100.00

 eigenvalues of (default mixing * dielectric matrix)
  average eigenvalue GAMMA=   1.6270
  2.4704  1.9392  1.9392  1.0030  1.2052  1.2052

 Free energy of the ion-electron system (eV)
  ---------------------------------------------------
  alpha Z        PSCENC =       107.59920118
  Ewald energy   TEWEN  =     -7309.90995240
  -Hartree energ DENC   =      -479.24212037
  -exchange      EXHF   =         0.00000000
  -V(xc)+E(xc)   XCENC  =      -537.97006980
  PAW double counting   =     33382.38383763   -32283.33692777
  entropy T*S    EENTRO =        -0.02399305
  eigenvalues    EBANDS =       199.45958972
  atomic energy  EATOM  =      6564.54007760
  Solvation  Ediel_sol  =         0.00000000
  ---------------------------------------------------
  free energy    TOTEN  =      -356.50035725 eV

  energy without entropy =     -356.47636421  energy(sigma->0) =     -356.48836073


--------------------------------------------------------------------------------------------------------




--------------------------------------- Iteration      1(   8)  ---------------------------------------


    POTLOK:  cpu time    0.0176: real time    0.0176
    SETDIJ:  cpu time    0.0076: real time    0.0076
    EDDIAG:  cpu time    0.1636: real time    0.1637
  RMM-DIIS:  cpu time    0.4127: real time    0.4130
    ORTHCH:  cpu time    0.0408: real time    0.0408
       DOS:  cpu time    0.0007: real time    0.0007
    CHARGE:  cpu time    0.0470: real time    0.0470
    MIXING:  cpu time    0.0024: real time    0.0024
    --------------------------------------------
      LOOP:  cpu time    0.6925: real time    0.6930

 eigenvalue-minimisations  :   321
 total energy-change (2. order) : 0.2012744E-04  (-0.6449689E-05)
 number of electron     255.9997341 magnetization 
 augmentation part      -14.4771474 magnetization 

 Broyden mixing:
  rms(total) = 0.81094E-03    rms(broyden)= 0.81093E-03
  rms(prec ) = 0.96719E-03
  weight for this iteration     100.00

 eigenvalues of (default mixing * dielectric matrix)
  average eigenvalue GAMMA=   1.6510
  2.9063  2.4471  1.5229  1.5229  0.9876  1.0852  1.0852

 Free energy of the ion-electron system (eV)
  ---------------------------------------------------
  alpha Z        PSCENC =       107.59920118
  Ewald energy   TEWEN  =     -7309.90995240
  -Hartree energ DENC   =      -479.24172461
  -exchange      EXHF   =         0.00000000
  -V(xc)+E(xc)   XCENC  =      -537.97001644
  PAW double counting   =     33382.24251027   -32283.19564794
  entropy T*S    EENTRO =        -0.02398727
  eigenvalues    EBANDS =       199.45920249
  atomic energy  EATOM  =      6564.54007760
  Solvation  Ediel_sol  =         0.00000000
  ---------------------------------------------------
  free energy    TOTEN  =      -356.50033713 eV

  energy without entropy =     -356.47634985  energy(sigma->0) =     -356.48834349


--------------------------------------------------------------------------------------------------------




--------------------------------------- Iteration      1(   9)  ---------------------------------------


    POTLOK:  cpu time    0.0174: real time    0.0174
    SETDIJ:  cpu time    0.0075: real time    0.0075
    EDDIAG:  cpu time    0.1637: real time    0.1638
  RMM-DIIS:  cpu time    0.3889: real time    0.3892
    ORTHCH:  cpu time    0.0409: real time    0.0409
       DOS:  cpu time    0.0006: real time    0.0006
    --------------------------------------------
      LOOP:  cpu time    0.6189: real time    0.6193

 eigenvalue-minimisations  :   299
 total energy-change (2. order) : 0.1572153E-06  (-0.8174771E-06)
 number of electron     255.9997341 magnetization 
 augmentation part      -14.4771474 magnetization 

 Free energy of the ion-electron system (eV)
  ---------------------------------------------------
  alpha Z        PSCENC =       107.59920118
  Ewald energy   TEWEN  =     -7309.90995240
  -Hartree energ DENC   =      -479.23846179
  -exchange      EXHF   =         0.00000000
  -V(xc)+E(xc)   XCENC  =      -537.97036819
  PAW double counting   =     33383.06215160   -32284.01495423
  entropy T*S    EENTRO =        -0.02397378
  eigenvalues    EBANDS =       199.45594306
  atomic energy  EATOM  =      6564.54007760
  Solvation  Ediel_sol  =         0.00000000
  ---------------------------------------------------
  free energy    TOTEN  =      -356.50033697 eV

  energy without entropy =     -356.47636319  energy(sigma->0) =     -356.48835008


--------------------------------------------------------------------------------------------------------




 average (electrostatic) potential at core
  the test charge radii are     0.9892
  (the norm of the test charge is              1.0000)
       1 -83.0072       2 -82.9581       3 -82.9250       4 -83.0332       5 -82.9074
       6 -83.0552       7 -83.0309       8 -82.9550       9 -82.9416      10 -83.0097
      11 -82.9906      12 -83.0059      13 -82.9870      14 -83.0247      15 -82.9593
      16 -82.9482      17 -83.0188      18 -82.9878      19 -82.9885      20 -82.8728
      21 -82.9661      22 -82.9720      23 -82.9907      24 -83.0310      25 -82.9487
      26 -82.9186      27 -82.9835      28 -83.0911      29 -82.9711      30 -83.0536
      31 -83.0609      32 -82.8467      33 -83.0234      34 -82.9362      35 -83.0533
      36 -82.9087      37 -82.9261      38 -83.0088      39 -82.8570      40 -83.0581
      41 -82.9718      42 -82.9671      43 -82.9313      44 -83.0496      45 -83.0425
      46 -82.9694      47 -82.9933      48 -82.9891      49 -82.9421      50 -82.9407
      51 -83.0129      52 -83.0045      53 -82.9214      54 -83.0888      55 -82.9993
      56 -82.9204      57 -82.9555      58 -82.9482      59 -82.9561      60 -82.9690
      61 -82.9668      62 -82.9851      63 -82.9206      64 -82.9615



 E-fermi :   6.1152     XC(G=0):  -9.5379     alpha+bet :-11.9786


 k-point     1 :       0.0000    0.0000    0.0000
  band No.  band energies     occupation 
      1      -6.1882      2.00000
      2      -5.2192      2.00000
      3      -5.1848      2.00000
      4      -5.1517      2.00000
      5      -5.0719      2.00000
      6      -5.0149      2.00000
      7      -4.9948      2.00000
      8      -4.3547      2.00000
      9      -4.3044      2.00000
     10      -4.2596      2.00000
     11      -4.2387      2.00000
     12      -4.1868      2.00000
     13      -4.1804      2.00000
     14      -4.0791      2.00000
     15      -4.0607      2.00000
     16      -4.0202      2.00000
     17      -3.9751      2.00000
     18      -3.9424      2.00000
     19      -3.9206      2.00000
     20      -3.8415      2.00000
     21      -3.8262      2.00000
     22      -3.7552      2.00000
     23      -3.6923      2.00000
     24      -2.1553      2.00000
     25      -2.1026      2.00000
     26      -2.0552      2.00000
     27      -2.0327      2.00000
     28      -2.0030      2.00000
     29      -1.9796      2.00000
     30      -1.9632      2.00000
     31      -1.9192      2.00000
     32      -1.9071      2.00000
     33      -1.8773      2.00000
     34      -1.8532      2.00000
     35      -1.8137      2.00000
     36      -1.7737      2.00000
     37      -1.7604      2.00000
     38      -1.7518      2.00000
     39      -1.7033      2.00000
     40      -1.6580      2.00000
     41      -1.6404      2.00000
     42      -1.2226      2.00000
     43      -1.1743      2.00000
     44      -1.1466      2.00000
     45      -1.0945      2.00000
     46       0.1563      2.00000
     47       0.1945      2.00000
     48       0.2414      2.00000
     49       0.2467      2.00000
     50       0.3100      2.00000
     51       0.3284      2.00000
     52       0.3423      2.00000
     53       0.3565      2.00000
     54       0.3983      2.00000
     55       0.4907      2.00000
     56       0.5037      2.00000
     57       0.5158      2.00000
     58       1.7202      2.00000
     59       1.7569      2.00000
     60       1.7900      2.00000
     61       1.8108      2.00000
     62       1.8212      2.00000
     63       1.8329      2.00000
     64       1.8573      2.00000
     65       1.8718      2.00000
     66       1.8842      2.00000
     67       1.9041      2.00000
     68       1.9174      2.00000
     69       1.9358      2.00000
     70       1.9569      2.00000
     71       1.9777      2.00000
     72       1.9883      2.00000
     73       2.0036      2.00000
     74       2.0151      2.00000
     75       2.0403      2.00000
     76       2.0710      2.00000
     77       2.0756      2.00000
     78       2.1199      2.00000
     79       2.1343      2.00000
     80       2.1489      2.00000
     81       2.1680      2.00000
     82       2.2818      2.00000
     83       2.2941      2.00000
     84       2.3806      2.00000
     85       2.3997      2.00000
     86       2.4440      2.00000
     87       2.4773      2.00000
     88       2.9463      2.00000
     89       2.9518      2.00000
     90       2.9534      2.00000
     91       2.9922      2.00000
     92       2.9978      2.00000
     93       3.0172      2.00000
     94       3.7645      2.00000
     95       3.7708      2.00000
     96       3.8018      2.00000
     97       3.8440      2.00000
     98       3.8594      2.00000
     99       3.9315      2.00000
    100       3.9549      2.00000
    101       3.9757      2.00000
    102       4.0358      2.00000
    103       4.0453      2.00000
    104       4.0652      2.00000
    105       4.0859      2.00000
    106       4.3300      2.00000
    107       4.3494      2.00000
    108       4.3898      2.00000
    109       4.4326      2.00000
    110       4.4401      2.00000
    111       4.4981      2.00000
    112       4.5282      2.00000
    113       4.5612      2.00000
    114       4.5689      2.00000
    115       4.5868      2.00000
    116       4.6226      2.00000
    117       4.6483      2.00000
    118       4.6602      2.00000
    119       4.6815      2.00000
    120       4.6898      2.00000
    121       4.7395      2.00000
    122       4.7491      2.00000
    123       4.7842      2.00000
    124       4.8203      2.00000
    125       4.8559      2.00000
    126       5.8205      1.99997
    127       5.8648      1.99960
    128       5.9900      1.92337
    129       6.2412      0.07478
    130       6.3330      0.00206
    131       6.3879      0.00011
    132       6.3957      0.00007
    133       6.4072      0.00004
    134       6.4985      0.00000
    135       6.7429      0.00000
    136       6.7675      0.00000
    137       6.8098      0.00000
    138       6.8371      0.00000
    139       6.8900      0.00000
    140       6.9145      0.00000
    141       7.2285      0.00000
    142       7.2472      0.00000
    143       7.2655      0.00000
    144       7.2910      0.00000
    145       7.9446      0.00000
    146       7.9922      0.00000
    147       8.0314      0.00000
    148       8.0476      0.00000
    149       8.0896      0.00000
    150       8.1204      0.00000
    151       8.1438      0.00000
    152       8.1783      0.00000
    153       8.2367      0.00000
    154       8.2389      0.00000
    155       8.2625      0.00000
    156       8.2970      0.00000
    157       8.3726      0.00000
    158       8.3935      0.00000
    159       8.4271      0.00000
    160       8.7100      0.00000
    161       8.7821      0.00000


--------------------------------------------------------------------------------------------------------


 soft charge-density along one line, spin component           1
         0         1         2         3         4         5         6         7         8         9
 total charge-density along one line

 pseudopotential strength for first ion, spin component:           1
 18.405  25.677   0.000  -0.001  -0.001   0.000  -0.001  -0.001
 25.677  35.826   0.000  -0.001  -0.001   0.000  -0.001  -0.002
  0.000   0.000   4.179  -0.000  -0.000   7.785  -0.000   0.000
 -0.001  -0.001  -0.000   4.179   0.000  -0.000   7.786   0.000
 -0.001  -0.001  -0.000   0.000   4.179   0.000   0.000   7.785
  0.000   0.000   7.785  -0.000   0.000  14.515  -0.000   0.000
 -0.001  -0.001  -0.000   7.786   0.000  -0.000  14.516   0.000
 -0.001  -0.002   0.000   0.000   7.785   0.000   0.000  14.515
 total augmentation occupancy for first ion, spin component:           1
  6.437  -2.553   0.089  -0.070   0.087  -0.032   0.027  -0.032
 -2.553   1.103  -0.048   0.011  -0.023   0.017  -0.008   0.011
  0.089  -0.048   3.482   0.139  -0.135  -0.850  -0.038   0.039
 -0.070   0.011   0.139   3.383   0.067  -0.037  -0.820  -0.018
  0.087  -0.023  -0.135   0.067   3.488   0.037  -0.019  -0.858
 -0.032   0.017  -0.850  -0.037   0.037   0.217   0.011  -0.011
  0.027  -0.008  -0.038  -0.820  -0.019   0.011   0.208   0.005
 -0.032   0.011   0.039  -0.018  -0.858  -0.011   0.005   0.220


------------------------ aborting loop because EDIFF is reached ----------------------------------------


    CHARGE:  cpu time    0.0470: real time    0.0470
    FORLOC:  cpu time    0.0092: real time    0.0092
    FORNL :  cpu time    0.1865: real time    0.1866
    STRESS:  cpu time    0.5638: real time    0.5642
    FORCOR:  cpu time    0.0263: real time    0.0263
    FORHAR:  cpu time    0.0128: real time    0.0128
    MIXING:  cpu time    0.0033: real time    0.0033
    OFIELD:  cpu time    0.0000: real time    0.0000

  FORCE on cell =-STRESS in cart. coord.  units (eV):
  Direction    XX          YY          ZZ          XY          YZ          ZX
  --------------------------------------------------------------------------------------
  Alpha Z   107.59920   107.59920   107.59920
  Ewald   -2435.06445 -2438.06584 -2436.82456    19.03288    40.48241    -5.82507
  Hartree   160.35545   159.06982   159.81470     1.24338     4.05672    -0.54570
  E(xc)    -819.43268  -819.33846  -819.40094    -0.33061    -0.53057     0.04666
  Local    -942.02752  -937.34019  -939.84051   -19.27582   -41.55666     5.89955
  n-local  2481.08650  2480.57071  2480.65708     5.23573     8.45142    -0.79551
  augment  -364.05996  -364.01266  -364.04026    -0.28682    -0.39639    -0.00422
  Kinetic  1820.83226  1820.44514  1820.40046    -2.24460    -4.46398     1.34878
  Fock        0.00000     0.00000     0.00000     0.00000     0.00000     0.00000
  -------------------------------------------------------------------------------------
  Total       9.28880     8.92774     8.36518     3.37413     6.04294     0.12447
  in kB      11.61355    11.16212    10.45876     4.21859     7.55533     0.15562
  external pressure =       11.08 kB  Pullay stress =        0.00 kB

  kinetic pressure (ideal gas correction) =      3.02 kB
  total pressure  =     14.10 kB
  Total+kin.    13.907      14.499      13.896       4.184       7.668      -0.347

 VOLUME and BASIS-vectors are now :
 -----------------------------------------------------------------------------
  energy-cutoff  :      250.00
  volume of cell :     1281.46
      direct lattice vectors                 reciprocal lattice vectors
    10.861800000  0.000000000  0.000000000     0.092065772  0.000000000  0.000000000
     0.000000000 10.861800000  0.000000000     0.000000000  0.092065772  0.000000000
     0.000000000  0.000000000 10.861800000     0.000000000  0.000000000  0.092065772

  length of vectors
    10.861800000 10.861800000 10.861800000     0.092065772  0.092065772  0.092065772


 FORCES acting on ions
    electron-ion (+dipol)            ewald-force                    non-local-force                 convergence-correction
 -----------------------------------------------------------------------------------------------
   0.397E+01 0.512E+01 -.386E+00   -.325E+01 -.483E+01 -.452E-03   -.127E+01 -.673E+00 0.105E+01   -.192E-03 0.142E-02 0.122E-02
   -.171E+01 -.306E+01 0.607E+01   0.145E+01 0.230E+01 -.568E+01   -.366E+00 0.200E+01 -.573E+00   0.128E-02 0.127E-02 0.153E-04
   -.240E+01 0.242E+01 0.498E+01   0.207E+01 -.178E+01 -.454E+01   0.108E+01 -.113E+01 -.174E+01   -.171E-02 -.162E-02 0.994E-03
   -.482E+01 -.380E+01 -.279E+01   0.405E+01 0.306E+01 0.206E+01   0.153E+01 0.112E+01 0.111E+01   0.311E-03 -.119E-02 0.782E-03
   -.185E+01 0.282E+01 0.414E+01   0.156E+01 -.299E+01 -.333E+01   -.240E+00 0.446E+00 -.154E+01   -.123E-02 -.782E-03 -.123E-02
   0.335E+01 0.797E+01 0.215E+01   -.308E+01 -.653E+01 -.177E+01   -.692E+00 -.346E+01 -.173E+01   0.586E-03 0.304E-02 -.385E-03
   -.267E+01 -.743E+00 -.352E+00   0.252E+01 0.833E+00 0.498E-01   -.807E-01 0.690E+00 -.451E+00   -.111E-02 -.316E-03 -.462E-03
   0.360E+01 0.175E-01 -.428E+01   -.306E+01 -.292E+00 0.384E+01   -.107E+01 -.437E+00 0.886E+00   0.511E-03 -.195E-02 -.182E-02
   -.301E+01 0.690E-01 0.154E+01   0.233E+01 0.125E+00 -.105E+01   0.144E+01 -.202E+00 -.380E+00   0.180E-02 0.199E-02 0.388E-03
   -.814E+01 -.244E+01 -.244E-01   0.725E+01 0.152E+01 -.389E+00   0.243E+01 0.113E+01 0.530E+00   -.183E-02 -.116E-03 -.115E-02
   0.664E+01 0.337E+01 0.589E+00   -.577E+01 -.263E+01 -.587E+00   -.138E+01 -.860E+00 0.724E+00   0.173E-02 -.248E-02 -.105E-02
   0.771E+00 0.368E+01 -.190E+01   -.496E+00 -.345E+01 0.156E+01   -.116E+01 -.968E-01 -.219E+00   -.164E-02 -.457E-03 0.126E-03
   -.878E+00 0.424E+01 -.224E+01   0.779E+00 -.394E+01 0.198E+01   0.456E+00 -.152E+01 0.466E+00   0.207E-02 0.886E-03 0.279E-03
   0.562E+01 0.625E+01 0.796E+00   -.489E+01 -.523E+01 -.878E+00   -.189E+01 -.194E+01 -.434E+00   -.224E-02 0.122E-02 0.152E-02
   -.292E+01 -.504E+01 -.148E+01   0.220E+01 0.412E+01 0.118E+01   0.140E+01 0.194E+01 0.648E+00   0.691E-03 -.114E-02 0.387E-03
   -.455E+01 -.616E+01 -.137E+01   0.459E+01 0.573E+01 0.132E+01   0.121E+01 0.152E+01 0.999E+00   -.213E-02 -.121E-02 0.462E-03
   0.326E+01 -.174E+01 -.438E+01   -.288E+01 0.150E+01 0.388E+01   -.100E+01 0.612E+00 0.174E+01   -.218E-03 0.856E-03 -.119E-02
   -.263E+01 -.250E+01 -.544E+01   0.240E+01 0.235E+01 0.484E+01   -.227E+00 0.846E+00 0.168E+01   0.141E-02 0.135E-02 0.547E-03
   0.339E+01 -.330E+01 -.932E+00   -.290E+01 0.247E+01 0.119E+01   0.230E-01 0.152E+01 -.354E+00   -.104E-02 -.308E-03 0.333E-03
   -.236E+01 -.241E+01 0.318E+01   0.182E+01 0.238E+01 -.268E+01   -.577E-01 0.239E+00 -.941E+00   0.166E-02 -.135E-02 -.732E-03
   -.387E+01 -.825E+00 0.190E+01   0.318E+01 0.676E+00 -.140E+01   0.994E+00 0.900E+00 -.802E+00   -.715E-03 0.974E-03 0.814E-03
   0.650E-01 -.172E+01 0.202E+00   -.142E+00 0.152E+01 -.675E-01   -.248E+00 0.180E+01 -.100E+01   0.101E-02 -.279E-04 0.222E-03
   -.221E+01 -.249E+01 0.131E+01   0.166E+01 0.256E+01 -.136E+01   0.106E+01 -.154E+00 0.176E+00   -.644E-03 0.155E-04 -.312E-03
   0.769E+00 -.617E+00 -.303E+00   -.338E+00 0.693E+00 0.229E+00   0.956E-01 -.472E+00 0.626E+00   0.397E-03 0.106E-03 0.772E-03
   -.230E+00 -.300E+01 -.592E+01   0.122E+00 0.233E+01 0.512E+01   -.164E+00 0.146E+01 0.170E+01   0.755E-03 0.440E-03 0.858E-03
   -.906E+00 0.198E+00 -.409E+01   0.319E+00 -.373E+00 0.328E+01   0.343E+00 -.770E-01 0.102E+01   -.161E-02 -.265E-03 -.628E-03
   0.577E+01 0.486E-01 0.179E+01   -.441E+01 0.167E+00 -.183E+01   -.159E+01 -.858E+00 -.288E+00   0.182E-02 0.168E-03 -.461E-03
   -.381E+01 -.550E+01 -.459E+01   0.331E+01 0.486E+01 0.414E+01   0.979E+00 0.102E+01 0.130E+01   -.180E-02 0.595E-03 0.105E-02
   -.301E+01 0.146E+01 -.203E+01   0.293E+01 -.148E+01 0.223E+01   0.463E+00 0.300E+00 0.660E+00   0.212E-02 -.379E-03 -.811E-03
   0.395E+01 0.376E+00 -.130E+01   -.292E+01 -.865E+00 0.112E+01   -.919E-01 -.198E+00 0.355E+00   -.162E-02 0.507E-03 0.125E-03
   -.400E+00 -.162E+01 0.214E+01   -.225E+00 0.185E+01 -.156E+01   0.858E+00 0.872E-01 -.142E+01   0.102E-02 0.752E-03 0.206E-02
   0.485E+00 -.148E+01 -.533E+01   -.533E+00 0.131E+01 0.455E+01   0.531E+00 0.160E+00 0.180E+01   -.142E-02 -.141E-03 -.621E-03
   0.421E+01 0.692E+01 -.186E+01   -.372E+01 -.628E+01 0.180E+01   -.105E+01 -.141E+01 0.102E+00   0.105E-02 0.543E-03 -.788E-04
   0.197E+01 0.701E+01 0.846E+00   -.177E+01 -.577E+01 -.736E+00   -.695E+00 -.238E+01 -.784E+00   -.672E-03 -.261E-03 -.297E-03
   0.173E+01 0.464E+00 -.424E+01   -.188E+01 -.381E+00 0.360E+01   0.327E+00 -.708E+00 0.801E+00   0.242E-02 -.157E-02 -.138E-03
   -.462E+01 -.239E+00 -.436E+01   0.394E+01 -.112E+00 0.429E+01   0.156E+01 0.477E+00 0.161E+01   -.200E-02 -.586E-03 -.157E-03
   0.441E+01 -.582E+01 -.760E+00   -.392E+01 0.495E+01 0.890E+00   -.931E+00 0.146E+01 0.133E+00   0.141E-02 -.493E-04 0.148E-02
   -.160E+01 -.321E+01 -.723E+01   0.150E+01 0.283E+01 0.610E+01   0.420E+00 0.157E+00 0.120E+01   -.132E-02 0.560E-03 0.125E-02
   0.250E+01 0.649E+01 0.381E+01   -.236E+01 -.572E+01 -.377E+01   -.767E+00 -.216E+01 -.692E+00   0.152E-02 -.739E-03 0.413E-03
   0.389E+01 0.536E+01 0.348E-01   -.357E+01 -.441E+01 0.204E+00   -.212E+01 -.182E+01 -.283E+00   -.916E-03 -.111E-02 0.337E-03
   -.110E+01 0.564E+01 -.884E+00   0.753E+00 -.524E+01 0.653E+00   0.347E+00 -.768E+00 0.141E+00   -.239E-03 0.107E-02 -.115E-02
   0.395E+00 0.345E+01 0.609E+01   -.208E-01 -.346E+01 -.542E+01   0.108E+00 -.736E+00 -.144E+01   -.556E-03 0.146E-02 -.726E-03
   0.152E+01 -.254E+01 -.181E+01   -.176E+01 0.254E+01 0.177E+01   0.131E+00 -.109E+00 0.832E+00   -.679E-04 -.630E-03 0.108E-02
   -.393E+00 -.147E+01 0.691E+01   0.953E+00 0.149E+01 -.564E+01   -.559E+00 0.251E+00 -.229E+01   0.201E-03 -.516E-03 0.115E-02
   -.232E+01 -.755E+00 -.195E+01   0.185E+01 0.258E+00 0.175E+01   0.153E+01 0.699E+00 0.108E+01   0.779E-03 0.956E-03 0.160E-03
   -.659E+01 -.403E+01 -.162E+01   0.568E+01 0.328E+01 0.185E+01   0.203E+01 0.104E+01 0.135E+01   -.139E-02 0.242E-02 -.103E-03
   0.531E+01 -.578E+01 0.209E+01   -.461E+01 0.514E+01 -.156E+01   -.114E+01 0.988E+00 -.273E+00   0.465E-03 -.935E-03 -.257E-03
   -.252E+01 -.110E+01 0.371E-01   0.256E+01 0.125E+01 -.446E+00   -.181E-01 0.478E+00 -.367E+00   0.241E-03 -.121E-02 -.484E-03
   0.358E+01 -.167E+01 0.690E+01   -.291E+01 0.150E+01 -.616E+01   -.759E+00 0.245E+00 -.198E+01   0.114E-02 0.728E-03 0.445E-03
   0.502E+01 0.221E+01 0.499E+01   -.439E+01 -.186E+01 -.419E+01   -.914E+00 0.147E+00 -.114E+01   -.122E-02 -.481E-05 0.321E-03
   -.189E+01 -.667E+01 -.146E+01   0.135E+01 0.595E+01 0.140E+01   0.734E+00 0.180E+01 -.712E-01   0.137E-02 -.215E-03 -.161E-03
   -.635E+00 -.151E+01 -.801E+00   0.829E+00 0.161E+01 0.748E+00   -.109E+01 -.104E+01 -.958E+00   -.166E-02 0.170E-04 0.125E-02
   0.177E+01 -.148E+01 -.693E+01   -.148E+01 0.166E+01 0.567E+01   -.745E+00 -.120E-01 0.121E+01   0.225E-02 0.708E-03 -.133E-02
   0.115E+00 -.444E+01 0.395E+01   -.198E+00 0.403E+01 -.363E+01   -.121E+01 0.142E+01 -.512E+00   -.276E-02 0.890E-03 -.381E-03
   -.563E+00 -.923E+00 0.896E+00   -.599E-01 0.704E+00 -.121E+01   0.225E+00 0.276E+00 -.700E-01   0.330E-03 -.164E-02 -.866E-03
   -.124E+01 0.392E+01 0.618E+01   0.137E+01 -.327E+01 -.507E+01   -.524E+00 -.132E+01 -.853E+00   0.157E-04 -.106E-02 -.115E-02
   0.195E+01 -.271E+01 0.420E+01   -.139E+01 0.229E+01 -.329E+01   -.550E+00 0.417E+00 -.124E+01   0.120E-02 -.329E-03 -.814E-03
   -.129E+01 0.703E+01 -.269E+01   0.130E+01 -.537E+01 0.244E+01   0.961E+00 -.310E+01 -.738E+00   -.150E-02 -.206E-03 -.103E-02
   -.864E-01 0.239E+01 0.423E+01   -.134E+00 -.271E+01 -.350E+01   0.417E+00 0.545E+00 -.972E+00   -.756E-03 -.633E-03 -.110E-02
   0.172E+01 -.485E+01 -.641E+01   -.139E+01 0.409E+01 0.572E+01   0.265E+00 0.167E+01 0.117E+01   0.937E-03 0.165E-03 -.167E-02
   0.107E+01 0.187E+00 0.103E+01   -.102E+01 0.129E+00 -.131E+01   -.495E+00 -.410E+00 0.853E+00   0.908E-03 -.632E-03 0.682E-03
   -.313E+01 0.233E+01 0.389E+01   0.250E+01 -.241E+01 -.354E+01   0.159E+01 -.661E+00 -.471E+00   -.288E-03 -.115E-02 0.330E-03
   0.203E+01 0.656E+01 0.205E+01   -.189E+01 -.551E+01 -.207E+01   -.368E+00 -.156E+01 -.666E+00   0.123E-02 0.103E-02 0.663E-04
   -.463E+01 -.526E+00 0.333E+01   0.425E+01 0.888E+00 -.280E+01   0.484E+00 0.522E+00 -.247E+00   0.631E-04 0.108E-02 0.778E-03
 -----------------------------------------------------------------------------------------------
   -.169E+00 -.137E+00 0.917E-01   -.168E-12 0.171E-13 0.844E-14   0.588E+00 0.991E-01 0.136E-01   0.200E-03 0.409E-04 -.491E-04


 POSITION                                       TOTAL-FORCE (eV/Angst)
 -----------------------------------------------------------------------------------
      0.09922      0.03331     10.85693        -0.552262     -0.387837      0.665514
      5.54340     10.68293     10.82092        -0.618963      1.236173     -0.184103
     10.76615      5.45663      0.01766         0.747116     -0.497793     -1.305503
      5.36753      5.43038     10.85777         0.763224      0.383299      0.380830
      0.03154     10.75261      5.37404        -0.535400      0.275219     -0.738807
      5.31225      0.19121      5.58438        -0.421617     -2.005040     -1.357724
      0.10721      5.24576      5.58972        -0.233652      0.779441     -0.754239
      5.45611      5.58873      5.42668        -0.524273     -0.713860      0.440279
      4.01052      1.41498      4.05850         0.764653     -0.006289      0.113444
      9.50860      1.33662      4.02443         1.534988      0.202292      0.115244
      4.14727      6.82745      3.94066        -0.508440     -0.125058      0.725561
      9.58418      6.59113      4.18390        -0.884673      0.134009     -0.559198
      4.04585      1.38220      9.56228         0.358937     -1.223967      0.208802
      9.60962      1.44127      9.59896        -1.157797     -0.929925     -0.515175
      4.03167      6.72394      9.51139         0.687011      1.027332      0.348591
      9.44424      6.80377      9.47835         1.239032      1.078311      0.946196
      0.04392      2.66504      2.55619        -0.619393      0.367636      1.236949
      5.44175      2.69847      2.66375        -0.457592      0.696714      1.085052
     10.76250      8.00898      2.73949         0.513677      0.688149     -0.098506
      5.52409      8.16487      2.70533        -0.594785      0.209979     -0.440420
     10.83919      2.67270      8.13452         0.299241      0.752439     -0.303962
      5.45889      2.58050      8.19457        -0.323507      1.604271     -0.869955
     10.77415      8.19212      8.06098         0.510191     -0.088062      0.129036
      5.35169      8.12234      8.12073         0.527150     -0.396797      0.553393
      4.09305      4.04752      1.32651        -0.270832      0.791742      0.907573
      9.48677      4.06340      1.31784        -0.245649     -0.252305      0.206776
      4.12904      9.53052      1.38995        -0.223052     -0.642032     -0.324663
      9.50425      9.60874      1.41901         0.482829      0.380667      0.839617
      4.10399      4.07165      6.72541         0.377862      0.277953      0.861745
      9.41338      4.08697      6.85734         0.940346     -0.685754      0.179435
      4.01456      9.56091      6.93210         0.234020      0.321730     -0.846108
      9.38785      9.57142      6.66903         0.481797     -0.010641      1.021881
      2.76764      0.01940      2.74242        -0.561899     -0.773824      0.041149
      8.06340      0.08651      2.83822        -0.499435     -1.142771     -0.674612
      2.67446      5.49553      2.66084         0.178589     -0.626623      0.163236
      8.06574      5.37029      2.62550         0.873564      0.126325      1.540593
      2.63297      0.02496      8.19092        -0.443030      0.583357      0.264479
      8.11381      0.10300      8.12486         0.320275     -0.221133      0.070098
      2.77579      5.51072      8.13398        -0.625118     -1.391599     -0.653523
      8.20667      5.48760      8.19890        -1.795459     -0.868771     -0.043772
      1.45658      1.34623      1.34607        -0.000012     -0.371903     -0.091650
      6.74010      1.34415      1.38597         0.482110     -0.741198     -0.766605
      1.28735      6.79136      1.27510        -0.105882     -0.105859      0.782905
      6.82133      6.80514      1.36966         0.000204      0.273633     -1.009409
      1.23607      1.31894      6.67901         1.064592      0.202144      0.876618
      6.78688      1.43886      6.64974         1.114752      0.293256      1.581308
      1.43193      6.80044      6.75877        -0.437353      0.346265      0.256530
      6.82916      6.80052      6.86638         0.018244      0.617956     -0.776234
      2.72300      2.76095      0.06785        -0.088361      0.077729     -1.236503
      8.11729      2.68631      0.03540        -0.281227      0.503730     -0.328512
      2.73656      8.06081      0.04337         0.189397      1.075571     -0.136229
      8.26815      8.23861      0.09719        -0.894048     -0.937092     -1.010182
      2.71249      2.71188      5.43245        -0.456445      0.163857     -0.047379
      8.27808      2.70714      5.38691        -1.293390      1.021299     -0.193490
      2.85928      8.14276      5.44282        -0.397797      0.056460     -0.386336
      8.16169      8.13821      5.36098        -0.395143     -0.672090      0.256593
      1.36670      4.02182      4.04044         0.010673     -0.010845     -0.335303
      6.71085      4.17970      4.14517         0.970568     -1.446554     -0.985479
      1.38415      9.36915      4.04559         0.195635      0.229325     -0.239970
      6.65525      9.50600      4.15859         0.590785      0.920436      0.470367
      1.38816      4.10139      9.43541        -0.439442     -0.094645      0.569499
      6.70439      4.11844      9.50708         0.954074     -0.748502     -0.120560
      1.35994      9.46700      9.56341        -0.226436     -0.503123     -0.681309
      6.86728      9.35112      9.40746         0.105924      0.885396      0.281395
 -----------------------------------------------------------------------------------
    total drift:                                0.419096     -0.037796      0.105268


--------------------------------------------------------------------------------------------------------



  FREE ENERGIE OF THE ION-ELECTRON SYSTEM (eV)
  ---------------------------------------------------
  free  energy   TOTEN  =      -356.50033697 eV

  energy  without entropy=     -356.47636319  energy(sigma->0) =     -356.48835008



--------------------------------------------------------------------------------------------------------


    POTLOK:  cpu time    0.0253: real time    0.0253


--------------------------------------------------------------------------------------------------------


           RANDOM_SEED =         144947877                0                0

  MD-specific parameters
                MDALGO =   2
           RANDOM_SEED =         144947877                0                0
   IONSTEP:  cpu time    0.0039: real time    0.0039

  ENERGY OF THE ELECTRON-ION-THERMOSTAT SYSTEM (eV)
  ---------------------------------------------------
% ion-electron   TOTEN  =      -356.500337  see above
  kinetic energy EKIN   =         3.626286
  kin. lattice  EKIN_LAT=         0.000000  (temperature  445.30 K)
  nose potential ES     =         0.000000
  nose kinetic   EPS    =         0.000000
  ---------------------------------------------------
  total energy   ETOTAL =      -352.874051 eV

  maximum distance moved by ions :      0.31E-02

    WAVPRE:  cpu time    0.1963: real time    0.1964
    FEWALD:  cpu time    0.0044: real time    0.0044
    GENKIN:  cpu time    0.0006: real time    0.0006

 real space projection operators:
  total allocation   :       1726.94 KBytes
  max/ min on nodes  :        448.44        414.56

    ORTHCH:  cpu time    0.1070: real time    0.1070
     LOOP+:  cpu time    7.4001: real time    7.4054


--------------------------------------- Iteration      2(   1)  ---------------------------------------


    POTLOK:  cpu time    0.0182: real time    0.0183
    SETDIJ:  cpu time    0.0072: real time    0.0072
    EDDIAG:  cpu time    0.1657: real time    0.1659
  RMM-DIIS:  cpu time    0.4212: real time    0.4216
    ORTHCH:  cpu time    0.0421: real time    0.0421
       DOS:  cpu time    0.0007: real time    0.0007
    CHARGE:  cpu time    0.0469: real time    0.0469
    MIXING:  cpu time    0.0014: real time    0.0014
    --------------------------------------------
      LOOP:  cpu time    0.7034: real time    0.7040

 eigenvalue-minimisations  :   322
 total energy-change (2. order) : 0.1805625E+00  (-0.5444060E+00)
 number of electron     255.9997744 magnetization 
 augmentation part      -14.4785110 magnetization 

 Broyden mixing:
  rms(total) = 0.70056E-01    rms(broyden)= 0.70036E-01
  rms(prec ) = 0.81546E-01
  weight for this iteration     100.00

 Free energy of the ion-electron system (eV)
  ---------------------------------------------------
  alpha Z        PSCENC =       107.59920118
  Ewald energy   TEWEN  =     -7310.46464223
  -Hartree energ DENC   =      -478.90995023
  -exchange      EXHF   =         0.00000000
  -V(xc)+E(xc)   XCENC  =      -538.01189538
  PAW double counting   =     33382.90642209   -32283.85931881
  entropy T*S    EENTRO =        -0.02299363
  eigenvalues    EBANDS =       199.90332477
  atomic energy  EATOM  =      6564.54007760
  Solvation  Ediel_sol  =         0.00000000
  ---------------------------------------------------
  free energy    TOTEN  =      -356.31977465 eV

  energy without entropy =     -356.29678102  energy(sigma->0) =     -356.30827783


--------------------------------------------------------------------------------------------------------




--------------------------------------- Iteration      2(   2)  ---------------------------------------


    POTLOK:  cpu time    0.0175: real time    0.0175
    SETDIJ:  cpu time    0.0074: real time    0.0074
    EDDIAG:  cpu time    0.1629: real time    0.1630
  RMM-DIIS:  cpu time    0.4171: real time    0.4174
    ORTHCH:  cpu time    0.0411: real time    0.0411
       DOS:  cpu time    0.0007: real time    0.0007
    CHARGE:  cpu time    0.0472: real time    0.0472
    MIXING:  cpu time    0.0014: real time    0.0014
    --------------------------------------------
      LOOP:  cpu time    0.6952: real time    0.6957

 eigenvalue-minimisations  :   325
 total energy-change (2. order) :-0.8704360E-02  (-0.1534093E-01)
 number of electron     255.9997742 magnetization 
 augmentation part      -14.4793759 magnetization 

 Broyden mixing:
  rms(total) = 0.51757E-01    rms(broyden)= 0.51754E-01
  rms(prec ) = 0.63546E-01
  weight for this iteration     100.00

 eigenvalues of (default mixing * dielectric matrix)
  average eigenvalue GAMMA=   1.1468
  1.1468

 Free energy of the ion-electron system (eV)
  ---------------------------------------------------
  alpha Z        PSCENC =       107.59920118
  Ewald energy   TEWEN  =     -7310.46464223
  -Hartree energ DENC   =      -478.82691718
  -exchange      EXHF   =         0.00000000
  -V(xc)+E(xc)   XCENC  =      -538.02256301
  PAW double counting   =     33375.47358393   -32276.41659680
  entropy T*S    EENTRO =        -0.02297683
  eigenvalues    EBANDS =       199.81235433
  atomic energy  EATOM  =      6564.54007760
  Solvation  Ediel_sol  =         0.00000000
  ---------------------------------------------------
  free energy    TOTEN  =      -356.32847901 eV

  energy without entropy =     -356.30550218  energy(sigma->0) =     -356.31699059


--------------------------------------------------------------------------------------------------------




--------------------------------------- Iteration      2(   3)  ---------------------------------------


    POTLOK:  cpu time    0.0183: real time    0.0183
    SETDIJ:  cpu time    0.0063: real time    0.0063
    EDDIAG:  cpu time    0.1631: real time    0.1632
  RMM-DIIS:  cpu time    0.4171: real time    0.4174
    ORTHCH:  cpu time    0.0413: real time    0.0413
       DOS:  cpu time    0.0007: real time    0.0007
    CHARGE:  cpu time    0.0467: real time    0.0467
    MIXING:  cpu time    0.0015: real time    0.0015
    --------------------------------------------
      LOOP:  cpu time    0.6949: real time    0.6954

 eigenvalue-minimisations  :   325
 total energy-change (2. order) : 0.4117768E-02  (-0.1072276E-02)
 number of electron     255.9997742 magnetization 
 augmentation part      -14.4795327 magnetization 

 Broyden mixing:
  rms(total) = 0.30101E-01    rms(broyden)= 0.30100E-01
  rms(prec ) = 0.34777E-01
  weight for this iteration     100.00

 eigenvalues of (default mixing * dielectric matrix)
  average eigenvalue GAMMA=   1.6705
  1.0890  2.2519

 Free energy of the ion-electron system (eV)
  ---------------------------------------------------
  alpha Z        PSCENC =       107.59920118
  Ewald energy   TEWEN  =     -7310.46464223
  -Hartree energ DENC   =      -478.79951626
  -exchange      EXHF   =         0.00000000
  -V(xc)+E(xc)   XCENC  =      -538.02803716
  PAW double counting   =     33358.58619151   -32259.52552927
  entropy T*S    EENTRO =        -0.02311880
  eigenvalues    EBANDS =       199.79101217
  atomic energy  EATOM  =      6564.54007760
  Solvation  Ediel_sol  =         0.00000000
  ---------------------------------------------------
  free energy    TOTEN  =      -356.32436124 eV

  energy without entropy =     -356.30124244  energy(sigma->0) =     -356.31280184


--------------------------------------------------------------------------------------------------------




--------------------------------------- Iteration      2(   4)  ---------------------------------------


    POTLOK:  cpu time    0.0182: real time    0.0182
    SETDIJ:  cpu time    0.0065: real time    0.0065
    EDDIAG:  cpu time    0.1629: real time    0.1630
  RMM-DIIS:  cpu time    0.4231: real time    0.4234
    ORTHCH:  cpu time    0.0412: real time    0.0412
       DOS:  cpu time    0.0007: real time    0.0007
    CHARGE:  cpu time    0.0468: real time    0.0468
    MIXING:  cpu time    0.0027: real time    0.0027
    --------------------------------------------
      LOOP:  cpu time    0.7021: real time    0.7025

 eigenvalue-minimisations  :   322
 total energy-change (2. order) : 0.6296480E-03  (-0.7064419E-03)
 number of electron     255.9997742 magnetization 
 augmentation part      -14.4797853 magnetization 

 Broyden mixing:
  rms(total) = 0.61489E-02    rms(broyden)= 0.61485E-02
  rms(prec ) = 0.85711E-02
  weight for this iteration     100.00

 eigenvalues of (default mixing * dielectric matrix)
  average eigenvalue GAMMA=   1.6316
  2.4321  1.2314  1.2314

 Free energy of the ion-electron system (eV)
  ---------------------------------------------------
  alpha Z        PSCENC =       107.59920118
  Ewald energy   TEWEN  =     -7310.46464223
  -Hartree energ DENC   =      -478.76370300
  -exchange      EXHF   =         0.00000000
  -V(xc)+E(xc)   XCENC  =      -538.03342501
  PAW double counting   =     33339.88031736   -32240.81629885
  entropy T*S    EENTRO =        -0.02317569
  eigenvalues    EBANDS =       199.75791705
[...]
    STRESS:  cpu time    0.5694: real time    0.5698
    FORCOR:  cpu time    0.0264: real time    0.0264
    FORHAR:  cpu time    0.0128: real time    0.0128
    MIXING:  cpu time    0.0022: real time    0.0022
    OFIELD:  cpu time    0.0000: real time    0.0000

  FORCE on cell =-STRESS in cart. coord.  units (eV):
  Direction    XX          YY          ZZ          XY          YZ          ZX
  --------------------------------------------------------------------------------------
  Alpha Z   107.59920   107.59920   107.59920
  Ewald   -2436.77420 -2435.49467 -2430.90013    22.20346    15.30950   -63.19658
  Hartree   160.09483   160.41212   162.63766     3.45516     1.58388    -7.49492
  E(xc)    -818.99674  -819.00661  -819.04799    -0.23359    -0.22579     0.81049
  Local    -939.57917  -941.38528  -946.77137   -26.44291   -15.48920    67.30045
  n-local  2480.96948  2481.73119  2481.70913     3.75146     3.59674   -13.18491
  augment  -364.55854  -364.75630  -364.57605    -0.32732    -0.16082     0.64823
  Kinetic  1818.52790  1820.15908  1818.73789    -0.66999    -1.57954     7.11865
  Fock        0.00000     0.00000     0.00000     0.00000     0.00000     0.00000
  -------------------------------------------------------------------------------------
  Total       7.28275     9.25872     9.38836     1.73627     3.03478    -7.99859
  in kB       9.10544    11.57594    11.73802     2.17081     3.79431   -10.00043
  external pressure =       10.81 kB  Pullay stress =        0.00 kB

  kinetic pressure (ideal gas correction) =      2.97 kB
  total pressure  =     13.78 kB
  Total+kin.    12.150      14.568      14.622       1.934       3.624     -10.282

 VOLUME and BASIS-vectors are now :
 -----------------------------------------------------------------------------
  energy-cutoff  :      250.00
  volume of cell :     1281.46
      direct lattice vectors                 reciprocal lattice vectors
    10.861800000  0.000000000  0.000000000     0.092065772  0.000000000  0.000000000
     0.000000000 10.861800000  0.000000000     0.000000000  0.092065772  0.000000000
     0.000000000  0.000000000 10.861800000     0.000000000  0.000000000  0.092065772

  length of vectors
    10.861800000 10.861800000 10.861800000     0.092065772  0.092065772  0.092065772


 FORCES acting on ions
    electron-ion (+dipol)            ewald-force                    non-local-force                 convergence-correction
 -----------------------------------------------------------------------------------------------
   0.199E+01 -.437E+01 -.123E+01   -.147E+01 0.338E+01 0.142E+01   -.608E+00 0.226E+01 -.681E+00   0.369E-03 0.241E-03 0.422E-03
   0.593E+01 0.222E+01 -.715E+01   -.532E+01 -.244E+01 0.643E+01   -.173E+00 0.888E+00 0.687E+00   0.112E-03 -.422E-03 0.619E-03
   0.161E+01 -.884E+01 0.792E+00   -.176E+01 0.778E+01 -.896E+00   0.341E+00 0.190E+01 -.800E-01   -.119E-03 0.634E-04 -.147E-04
   0.341E+01 -.153E+02 0.174E+01   -.253E+01 0.145E+02 -.165E+01   -.147E+01 0.179E+01 0.596E+00   0.758E-04 0.325E-03 0.158E-03
   0.597E+01 -.318E+01 0.200E+01   -.465E+01 0.347E+01 -.148E+01   -.278E+01 0.266E+00 -.844E-01   -.232E-03 -.630E-03 0.799E-04
   0.845E+01 0.258E+01 -.315E+01   -.753E+01 -.290E+01 0.279E+01   -.177E+01 0.359E+00 0.139E+01   -.860E-04 -.267E-03 0.187E-03
   -.435E+01 -.285E+00 -.555E+01   0.363E+01 0.388E+00 0.500E+01   0.171E+01 0.369E+00 0.179E+01   0.189E-03 0.787E-05 -.132E-03
   -.312E+01 -.117E+02 -.894E+01   0.237E+01 0.108E+02 0.899E+01   0.295E+00 0.288E+01 0.401E+00   0.240E-03 -.373E-03 -.482E-03
   0.109E+02 0.655E+01 -.606E+00   -.100E+02 -.680E+01 0.329E+00   -.229E+01 0.517E-01 0.766E+00   -.535E-03 0.368E-03 -.495E-03
   -.908E+01 0.448E+01 -.586E+00   0.856E+01 -.425E+01 0.492E+00   0.168E+01 -.152E+01 -.113E+00   -.156E-03 -.226E-03 -.243E-03
   -.318E+01 -.516E+01 -.373E+01   0.272E+01 0.492E+01 0.346E+01   0.185E+01 0.105E+00 0.922E+00   -.766E-04 -.342E-03 -.607E-03
   0.142E+00 0.169E+01 0.690E+01   0.614E+00 -.136E+01 -.528E+01   -.850E+00 -.146E+01 -.189E+01   0.608E-03 0.585E-04 -.754E-03
   0.256E+01 0.799E+01 0.257E+01   -.270E+01 -.709E+01 -.215E+01   -.187E+00 -.187E+01 0.800E+00   0.173E-03 0.163E-03 -.200E-03
   -.118E+02 -.157E+01 0.932E+00   0.108E+02 0.102E+01 -.120E+01   0.187E+01 -.128E-01 0.465E+00   0.460E-04 0.874E-03 -.170E-03
   -.202E+00 0.157E+01 0.290E+01   -.454E-01 -.399E+00 -.204E+01   0.422E+00 -.220E+01 -.685E+00   0.929E-05 -.770E-04 0.451E-03
   -.135E+01 -.216E+01 -.649E+01   0.173E+01 0.165E+01 0.535E+01   0.394E-01 0.982E+00 0.215E+01   -.632E-03 -.373E-03 0.703E-04
   -.340E+01 0.477E+01 0.934E+00   0.337E+01 -.425E+01 -.891E+00   -.798E+00 -.657E+00 -.472E-01   0.565E-03 -.494E-03 -.516E-03
   0.637E+01 0.185E+01 0.248E+01   -.594E+01 -.230E+01 -.235E+01   -.134E+01 0.561E+00 -.530E+00   -.109E-02 -.291E-03 -.447E-03
   -.106E+02 0.258E+01 0.821E+01   0.941E+01 -.201E+01 -.746E+01   0.206E+01 -.140E+01 -.194E+01   0.153E-03 -.441E-03 0.325E-03
   0.642E+01 -.373E+01 0.329E+01   -.548E+01 0.351E+01 -.273E+01   -.143E+01 0.630E+00 -.182E+01   0.315E-03 0.140E-03 -.402E-03
   0.504E+01 -.266E+01 0.319E+01   -.374E+01 0.200E+01 -.285E+01   -.222E+01 0.114E+01 -.503E+00   -.587E-03 0.313E-03 0.366E-03
   -.603E+01 -.284E+01 0.765E+01   0.507E+01 0.247E+01 -.666E+01   0.142E+01 0.380E+00 -.258E+01   -.720E-04 -.300E-03 -.871E-04
   -.215E+01 0.403E+01 -.872E+00   0.171E+01 -.367E+01 0.781E+00   0.447E+00 -.649E+00 0.146E+00   0.147E-03 -.247E-03 -.722E-04
   -.392E+01 0.178E+01 0.195E+01   0.291E+01 -.144E+01 -.201E+01   0.882E+00 -.703E+00 -.149E+00   0.302E-03 0.114E-03 0.319E-03
   0.658E+01 -.216E+01 0.493E+01   -.597E+01 0.236E+01 -.483E+01   -.925E+00 -.174E+00 0.575E-01   0.207E-03 -.582E-03 0.205E-03
   -.465E+01 -.302E+01 -.323E+01   0.527E+01 0.243E+01 0.221E+01   -.155E+00 0.767E+00 0.164E+01   -.267E-03 0.186E-03 -.937E-04
   -.441E+00 0.332E+01 -.441E+01   -.199E+00 -.330E+01 0.407E+01   -.229E+00 -.154E+00 0.121E+01   0.745E-03 0.265E-03 -.114E-03
   -.381E+01 -.170E+01 -.228E+01   0.363E+01 0.157E+01 0.165E+01   0.907E+00 0.147E+01 0.769E+00   -.323E-03 -.349E-03 0.198E-03
   0.181E+01 0.329E+01 -.477E+01   -.197E+01 -.234E+01 0.408E+01   0.192E+01 -.144E+01 0.549E+00   0.422E-03 -.731E-03 -.407E-03
   -.119E+02 0.387E+01 -.705E+01   0.106E+02 -.370E+01 0.602E+01   0.241E+01 -.596E+00 0.176E+01   -.145E-03 0.831E-04 0.405E-03
   0.635E+01 0.203E+01 0.915E+01   -.558E+01 -.183E+01 -.801E+01   -.851E+00 -.325E+00 -.208E+01   0.206E-03 0.373E-03 -.960E-04
   -.132E+01 -.187E+01 0.686E+01   0.197E+01 0.162E+01 -.622E+01   -.438E+00 -.553E+00 -.224E+01   -.143E-03 0.606E-04 -.868E-03
   -.223E+01 0.678E+00 -.327E-01   0.189E+01 -.727E+00 -.288E+00   0.205E+01 0.494E+00 -.521E+00   0.771E-03 0.853E-03 -.262E-03
   -.261E+01 -.160E+01 0.318E+00   0.281E+01 0.141E+01 0.410E+00   -.404E+00 0.490E+00 -.124E+01   -.181E-03 -.137E-03 -.237E-03
   0.103E+01 0.368E+01 0.663E+01   -.154E+01 -.263E+01 -.619E+01   0.328E-01 -.162E+01 -.104E+01   0.299E-03 -.997E-04 0.588E-03
   -.992E+01 0.473E+01 -.273E+01   0.863E+01 -.361E+01 0.178E+01   0.290E+01 -.106E+01 0.800E+00   0.748E-04 -.163E-03 -.191E-03
   0.484E+01 0.165E+01 0.392E+01   -.456E+01 -.154E+01 -.419E+01   -.406E+00 0.628E+00 -.118E+01   0.552E-03 0.171E-03 -.211E-03
   -.330E+01 -.424E+01 0.110E+02   0.350E+01 0.405E+01 -.969E+01   0.104E+00 0.180E+01 -.230E+01   -.320E-03 0.516E-03 -.817E-03
   0.579E+01 -.114E+02 -.581E+01   -.564E+01 0.103E+02 0.506E+01   -.767E+00 0.248E+01 0.113E+01   -.306E-03 0.490E-03 0.847E-03
   -.370E+01 0.641E+00 0.424E+00   0.354E+01 -.791E-01 -.316E+00   -.117E+00 0.901E-01 0.329E+00   0.744E-04 0.163E-04 0.360E-03
   0.183E+01 0.206E+01 0.230E+01   -.208E+01 -.247E+01 -.172E+01   -.253E+00 0.164E+00 -.618E+00   0.468E-04 0.342E-03 0.612E-03
   -.351E+01 0.155E+02 -.370E+01   0.324E+01 -.140E+02 0.334E+01   0.367E-01 -.397E+01 0.867E+00   -.593E-03 -.371E-03 -.948E-04
   0.108E+02 -.339E+01 0.143E+01   -.929E+01 0.291E+01 -.176E+01   -.321E+01 0.973E+00 0.566E+00   -.786E-04 0.175E-03 0.173E-03
   -.375E+00 -.675E+01 0.114E+02   0.173E+00 0.600E+01 -.103E+02   -.117E+01 0.134E+01 -.286E+01   -.254E-03 0.594E-03 -.509E-03
   -.665E+01 -.643E+00 0.457E+01   0.526E+01 0.234E+00 -.483E+01   0.235E+01 0.383E+00 0.423E-02   0.371E-03 -.163E-03 -.298E-04
   0.538E+00 0.101E+01 -.305E+01   -.293E+00 -.117E+01 0.214E+01   0.334E+00 0.269E+00 0.152E+01   -.143E-03 0.315E-05 0.148E-03
   0.429E+01 0.369E+01 -.831E+00   -.406E+01 -.298E+01 0.102E+01   -.487E+00 -.116E+01 -.713E+00   0.507E-04 0.166E-03 -.653E-04
   0.298E+01 -.407E+01 0.245E+01   -.218E+01 0.375E+01 -.202E+01   -.775E+00 -.166E-01 -.142E+01   0.207E-03 0.313E-03 0.282E-03
   0.522E+01 0.422E+01 -.800E+01   -.512E+01 -.387E+01 0.643E+01   0.189E+00 -.565E+00 0.240E+01   0.749E-03 -.862E-04 0.641E-03
   -.110E+02 0.133E+01 0.671E+01   0.105E+02 -.139E+01 -.579E+01   0.148E+01 0.812E+00 -.160E+01   0.124E-03 0.254E-03 -.923E-04
   0.225E+01 -.247E+01 -.287E+01   -.226E+01 0.219E+01 0.240E+01   0.678E+00 0.694E+00 0.421E+00   0.319E-03 -.327E-03 0.576E-04
   0.146E+01 0.896E+01 0.801E+01   -.752E+00 -.761E+01 -.694E+01   -.708E+00 -.328E+01 -.140E+01   -.927E-03 -.631E-03 0.411E-03
   0.548E+01 0.125E+02 0.382E+01   -.564E+01 -.114E+02 -.316E+01   -.952E+00 -.280E+01 -.533E+00   0.748E-03 -.198E-03 -.694E-03
   0.971E+00 0.506E+01 -.111E+01   -.289E+00 -.477E+01 0.174E+01   -.173E+01 -.320E+00 -.925E+00   -.262E-03 0.157E-03 0.287E-03
   -.160E+01 -.530E+01 -.705E+01   0.103E+01 0.472E+01 0.656E+01   0.542E+00 0.151E+01 0.189E+01   -.484E-03 0.276E-03 -.224E-03
   -.176E+01 -.482E+01 -.112E+02   0.149E+01 0.474E+01 0.101E+02   -.674E+00 0.993E+00 0.264E+01   -.532E-03 0.761E-03 0.374E-03
   0.351E+01 0.196E+01 -.406E+01   -.335E+01 -.226E+01 0.315E+01   -.404E-01 -.221E+00 0.688E+00   0.700E-03 0.144E-03 -.250E-03
   -.233E+01 -.430E+00 -.814E+01   0.202E+01 0.142E+00 0.763E+01   0.176E+01 -.509E-01 0.137E+01   0.306E-04 0.336E-03 0.194E-03
   -.570E+00 -.146E+01 -.307E+01   0.610E+00 0.164E+01 0.300E+01   -.289E+00 -.442E+00 0.307E+00   -.331E-03 -.716E-03 0.379E-03
   -.233E+01 -.157E+01 -.305E+01   0.196E+01 0.133E+01 0.314E+01   0.121E+01 0.361E+00 0.502E-01   -.321E-03 -.361E-03 0.106E-03
   0.932E+01 -.454E+01 -.791E+00   -.887E+01 0.396E+01 0.874E+00   -.142E+01 0.109E+01 -.488E+00   -.240E-03 0.478E-03 -.201E-03
   -.508E+01 -.294E+01 0.245E+01   0.492E+01 0.341E+01 -.229E+01   0.257E+00 -.550E+00 -.738E+00   0.178E-03 0.228E-03 -.366E-04
   0.228E+01 -.725E+00 -.913E+00   -.259E+01 0.135E+00 0.136E+01   0.116E+00 0.203E+00 0.362E+00   0.107E-03 -.438E-04 0.219E-03
   0.288E+01 0.494E+01 -.572E+01   -.251E+01 -.421E+01 0.492E+01   -.155E+01 -.200E+01 0.184E+01   -.106E-02 -.653E-03 0.719E-03
 -----------------------------------------------------------------------------------------------
   0.781E+00 0.128E+00 -.222E+00   0.622E-14 -.666E-13 -.266E-13   -.118E+01 -.168E+00 0.279E+00   -.207E-03 -.190E-03 0.898E-04


 POSITION                                       TOTAL-FORCE (eV/Angst)
 -----------------------------------------------------------------------------------
     10.75819     10.70106      0.08771        -0.083507      1.277288     -0.486954
      5.35962      0.07624      0.06867         0.443393      0.666569     -0.031254
     10.75950      5.35302      0.04923         0.187372      0.838342     -0.184182
      5.55482      5.55253     10.75516        -0.591820      0.952546      0.691018
      0.12261      0.05241      5.42984        -1.449578      0.546312      0.433725
      5.41295      0.00790      5.32170        -0.852933      0.041258      1.026682
     10.67439      5.40585      5.21091         0.988020      0.471943      1.237815
      5.33789      5.30614      5.60066        -0.459201      1.923489      0.451784
      4.20702      1.38640      3.87552        -1.387821     -0.201069      0.488437
      9.49667      1.53658      4.06891         1.150772     -1.290976     -0.207725
      4.01667      6.68189      4.07547         1.382307     -0.138239      0.653178
      9.40930      6.83938      3.94951        -0.092659     -1.124940     -0.271664
      4.09977      1.38684      9.38912        -0.322814     -0.963336      1.222012
      9.47789      1.38127      9.44581         0.902017     -0.570715      0.197135
      4.10462      6.99543      9.40264         0.174045     -1.027161      0.176359
      9.40357      6.73988      9.40115         0.417357      0.466918      1.009304
      0.16755      2.76111      2.66947        -0.828904     -0.132322     -0.004377
      5.48597      2.78739      2.58585        -0.911600      0.113225     -0.399412
     10.85821      8.16659      2.79304         0.897638     -0.823173     -1.187567
      5.52795      8.02780      2.92190        -0.490543      0.410366     -1.265368
      0.11920      2.68972      8.09344        -0.928521      0.479055     -0.161939
      5.41460      2.81782      8.28871         0.462283      0.009597     -1.588107
     10.84800      8.14330      8.16425         0.006825     -0.289381      0.054805
      5.55599      8.35260      8.16095        -0.129471     -0.361128     -0.215173
      4.17931      4.08617      1.14225        -0.318877      0.030691      0.155882
      9.41176      3.98935      1.39166         0.464415      0.176923      0.614149
      4.18606      9.40544      1.37385        -0.868835     -0.130964      0.861573
      9.39216      9.36320      1.47185         0.735681      1.336228      0.139259
      3.88770      4.09885      6.95629         1.758599     -0.493175     -0.145782
      9.43976      4.02737      6.62396         1.113957     -0.425910      0.733213
      4.04339      9.48003      6.78476        -0.084412     -0.124297     -0.944703
      9.56554      9.62028      6.92016         0.216793     -0.809424     -1.595714
      2.62377     10.76577      2.77020         1.700400      0.445898     -0.842166
      8.15385      0.01667      2.81848        -0.197802      0.300373     -0.508641
      2.87581      5.38702      2.63554        -0.484273     -0.568262     -0.600993
      7.95694      5.27577      2.83099         1.610321      0.056491     -0.152116
      2.73561     10.76803      8.26034        -0.122224      0.731381     -1.447887
      8.10517      0.00634      8.14990         0.299611      1.611902     -0.984269
      2.65616      5.42743      8.24803        -0.616859      1.334732      0.384762
      8.16463      5.28999      8.05947        -0.282753      0.652077      0.438387
      1.40711      1.27884      1.30744        -0.505429     -0.247699     -0.039008
      6.83855      1.49821      1.35463        -0.230384     -2.470744      0.505392
      1.50036      6.68673      1.33330        -1.717487      0.494340      0.239036
      6.94846      6.77948      1.51616        -1.373454      0.589123     -1.707147
      1.49318      1.38445      6.74513         0.971763     -0.025618     -0.250967
      6.64842      1.36203      6.76147         0.579387      0.105993      0.606982
      1.25728      6.71697      6.78712        -0.253413     -0.448516     -0.523437
      6.82806      6.81767      6.88067         0.023291     -0.338411     -0.987204
      2.73995      2.65425     10.76055         0.284170     -0.220454      0.829404
      8.13715      2.64655     10.85801         0.950409      0.753331     -0.681799
      2.68013      8.14216     10.85924         0.670438      0.406133     -0.048215
      8.08055      8.29840     10.85454        -0.005696     -1.929287     -0.331990
      2.91342      2.90105      5.30302        -1.108511     -1.700522      0.124767
      8.05100      2.70339      5.41532        -1.047844     -0.024502     -0.288112
      2.65908      7.97120      5.35587        -0.028273      0.934979      1.395290
      8.28443      8.12061      5.40861        -0.936704      0.907514      1.596673
      1.41788      4.20678      4.02715         0.121890     -0.515165     -0.223241
      6.50055      4.05783      4.12232         1.459350     -0.338764      0.859957
      1.35295      9.46428      4.13699        -0.249055     -0.256041      0.237055
      6.79382      9.47902      4.15570         0.843160      0.118548      0.138369
      1.36349      4.02724      9.59616        -0.975133      0.507396     -0.405498
      6.86105      4.09679      9.58682         0.091146     -0.080841     -0.579618
      1.30810      9.49693      9.52006        -0.189340     -0.387039      0.808126
      6.82387      9.76808      9.54573        -1.177657     -1.272932      1.038478
 -----------------------------------------------------------------------------------
    total drift:                               -0.396977     -0.040051      0.056779


--------------------------------------------------------------------------------------------------------



  FREE ENERGIE OF THE ION-ELECTRON SYSTEM (eV)
  ---------------------------------------------------
  free  energy   TOTEN  =      -355.07276885 eV

  energy  without entropy=     -355.02063418  energy(sigma->0) =     -355.04670151

 d Force = 0.1389843E-01[-0.134E+00, 0.162E+00]  d Energy = 0.1263456E-01 0.126E-02
 d Force = 0.7118007E-01[-0.478E+00, 0.621E+00]  d Ewald  = 0.7128143E-01-0.101E-03


--------------------------------------------------------------------------------------------------------


    POTLOK:  cpu time    0.0253: real time    0.0253


--------------------------------------------------------------------------------------------------------


           RANDOM_SEED =         144947877                0                0
   IONSTEP:  cpu time    0.0002: real time    0.0002

  ENERGY OF THE ELECTRON-ION-THERMOSTAT SYSTEM (eV)
  ---------------------------------------------------
% ion-electron   TOTEN  =      -355.072769  see above
  kinetic energy EKIN   =         3.689366
  kin. lattice  EKIN_LAT=         0.000000  (temperature  453.05 K)
  nose potential ES     =        -2.570033
  nose kinetic   EPS    =         1.072248
  ---------------------------------------------------
  total energy   ETOTAL =      -352.881189 eV

  maximum distance moved by ions :      0.31E-02


 mean value of Nose-termostat <S>:    -0.331 mean value of <T> :   559.585
 mean temperature <T/S>/<1/S>  :   465.276

    WAVPRE:  cpu time    0.1414: real time    0.1415
    FEWALD:  cpu time    0.0044: real time    0.0044
    GENKIN:  cpu time    0.0006: real time    0.0006

 real space projection operators:
  total allocation   :       1726.62 KBytes
  max/ min on nodes  :        449.94        413.25

    ORTHCH:  cpu time    0.1061: real time    0.1062
 Prediction of Wavefunctions ALPHA= 1.985 BETA=-1.024
    POTLOK:  cpu time    0.0244: real time    0.0245
    EDDIAG:  cpu time    0.1656: real time    0.1657
 writing wavefunctions
     LOOP+:  cpu time    4.1785: real time    4.1819
    4ORBIT:  cpu time    0.0000: real time    0.0000

 total amount of memory used by VASP MPI-rank0    58346. kBytes
=======================================================================

   base      :      30000. kBytes
   nonlr-proj:       1044. kBytes
   fftplans  :       1760. kBytes
   grid      :       2147. kBytes
   one-center:         49. kBytes
   wavefun   :      23346. kBytes

  
  
 General timing and accounting informations for this job:
 ========================================================
  
                  Total CPU time used (sec):      431.697
                            User time (sec):      407.517
                          System time (sec):       24.180
                         Elapsed time (sec):      432.306
  
                   Maximum memory used (kb):       76424.
                   Average memory used (kb):           0.
  
                          Minor page faults:       807972
                          Major page faults:           37
                 Voluntary context switches:         1306
