<?xml version="1.0" encoding="ISO-8859-1"?>
<modeling>
 <generator>
  <i name="program" type="string">vasp </i>
  <i name="version" type="string">5.4.4.18Apr17-6-g9f103f2a35  </i>
  <i name="subversion" type="string">(build Sep 15 2021 12:59:37) complex            parallel </i>
  <i name="platform" type="string">LinuxGNU </i>
  <i name="date" type="string">2022 10 04 </i>
  <i name="time" type="string">11:27:47 </i>
 </generator>
 <incar>
  <i type="string" name="SYSTEM"> si_2x2x2</i>
  <i type="string" name="PREC">low</i>
  <i type="string" name="ALGO">  VeryFast</i>
  <i type="int" name="NELM">   150</i>
  <i name="EDIFF">      0.00000100</i>
  <i type="int" name="NSW">   100</i>
  <i type="int" name="ISIF">     3</i>
  <i type="int" name="ISYM">     0</i>
  <i name="ENCUT">    250.00000000</i>
  <i name="POTIM">      3.00000000</i>
  <i name="TEBEG">    600.00000000</i>
  <i name="TEEND">    600.00000000</i>
  <i name="SMASS">      1.00000000</i>
  <i type="string" name="LREAL"> Auto</i>
  <i type="logical" name="LPLANE"> T  </i>
  <i type="int" name="ISMEAR">     0</i>
  <i name="SIGMA">      0.10000000</i>
  <i type="int" name="NWRITE">     2</i>
  <i type="logical" name="LWAVE"> T  </i>
  <i type="int" name="MDALGO">     2</i>
  <v type="int" name="KPOINT_BSE">    -1     0     0     0</v>
  <i type="int" name="NELM">   150</i>
  <i type="string" name="GGA"> PS</i>
 </incar>
 <structure name="primitive_cell" >
  <crystal>
   <varray name="basis" >
    <v>      10.86180000       0.00000000       0.00000000 </v>
    <v>       0.00000000      10.86180000       0.00000000 </v>
    <v>       0.00000000       0.00000000      10.86180000 </v>
   </varray>
   <i name="volume">   1281.46103541 </i>
   <varray name="rec_basis" >
    <v>       0.09206577       0.00000000       0.00000000 </v>
    <v>       0.00000000       0.09206577       0.00000000 </v>
    <v>       0.00000000       0.00000000       0.09206577 </v>
   </varray>
  </crystal>
  <varray name="positions" >
   <v>       0.00913475       0.00306694      -0.00044876 </v>
   <v>       0.12520399      -0.12841349      -0.11953757 </v>
   <v>      -0.11528331       0.13269141      -0.11626448 </v>
   <v>       0.13410147       0.12394129       0.12392717 </v>
   <v>      -0.12498354      -0.11536397       0.13064250 </v>
   <v>       0.00404341       0.24535861       0.23533788 </v>
   <v>       0.24240676       0.00229827      -0.24589637 </v>
   <v>      -0.23878622      -0.24150567       0.00894766 </v>
   <v>       0.25069540       0.25418940       0.00624680 </v>
   <v>      -0.00208118       0.24606384      -0.25108916 </v>
   <v>       0.25480491       0.00178618       0.25248312 </v>
   <v>       0.25194374      -0.25787576       0.00399314 </v>
   <v>      -0.25267527       0.24731729       0.00325908 </v>
   <v>      -0.00806997      -0.24578576      -0.25785922 </v>
   <v>      -0.25299609       0.00948254      -0.25197886 </v>
   <v>      -0.00914214      -0.26264677       0.25221281 </v>
   <v>      -0.25763656       0.00796418       0.26130276 </v>
   <v>       0.37248392       0.12725335      -0.11964103 </v>
   <v>       0.11852042      -0.37474779       0.11739345 </v>
   <v>      -0.12458343       0.12305672       0.37051264 </v>
   <v>       0.38014307      -0.12256567       0.12796724 </v>
   <v>      -0.12659339       0.37410047       0.12132754 </v>
   <v>       0.12780189       0.37759795      -0.13132189 </v>
   <v>       0.12743326      -0.13742236       0.37246032 </v>
   <v>       0.11380014       0.12142968      -0.38509151 </v>
   <v>      -0.13050832      -0.37360589      -0.12736883 </v>
   <v>      -0.36775862      -0.13908195      -0.13389458 </v>
   <v>      -0.37946745       0.12375046       0.12760015 </v>
   <v>      -0.13570019      -0.11880019      -0.38601091 </v>
   <v>       0.00290396      -0.01005302       0.49476542 </v>
   <v>      -0.48964251      -0.01646815      -0.00376402 </v>
   <v>      -0.00880569      -0.49763112       0.00162551 </v>
   <v>       0.36960359      -0.11976774      -0.36179043 </v>
   <v>       0.36923159       0.13027147       0.37364894 </v>
   <v>       0.37682977       0.37263787       0.12212640 </v>
   <v>       0.12582591       0.37027153       0.37198627 </v>
   <v>       0.37117882      -0.38095508      -0.12432626 </v>
   <v>      -0.13334979       0.37626978      -0.36867348 </v>
   <v>       0.13183140      -0.37391194      -0.37774887 </v>
   <v>      -0.37198855      -0.37347943       0.12609837 </v>
   <v>      -0.38275545       0.37916693      -0.12472312 </v>
   <v>      -0.37516060       0.13247005      -0.38778675 </v>
   <v>      -0.38727955      -0.12482287       0.38286339 </v>
   <v>      -0.11762511      -0.39318241       0.38519414 </v>
   <v>      -0.49742302       0.23757565      -0.24556024 </v>
   <v>       0.49270773      -0.25221045      -0.25235829 </v>
   <v>      -0.49900111       0.24843653       0.24524058 </v>
   <v>       0.24622588      -0.49404962       0.24497237 </v>
   <v>      -0.23787188       0.24923470       0.49595038 </v>
   <v>       0.24972706       0.24967131      -0.49985699 </v>
   <v>       0.25555552      -0.49265104      -0.25113930 </v>
   <v>      -0.25742164       0.49442015       0.24171906 </v>
   <v>      -0.24444652      -0.49478031      -0.24516236 </v>
   <v>      -0.49142082      -0.24829450       0.24906852 </v>
   <v>      -0.24858734      -0.25074925       0.49356271 </v>
   <v>       0.26324185      -0.25033006      -0.49890284 </v>
   <v>       0.38182184      -0.37142523       0.36279993 </v>
   <v>       0.37783732       0.37485989      -0.38082010 </v>
   <v>      -0.37126798      -0.37390507      -0.36784102 </v>
   <v>      -0.38215996       0.38480713       0.38162784 </v>
   <v>       0.00987047       0.48295459      -0.48537795 </v>
   <v>       0.48907612       0.01760360      -0.48587012 </v>
   <v>       0.49416598       0.49995237      -0.00037071 </v>
   <v>      -0.49767875      -0.48546955       0.49961190 </v>
  </varray>
 </structure>
 <varray name="primitive_index" >
  <v type="int" >        1 </v>
  <v type="int" >       63 </v>
  <v type="int" >       14 </v>
  <v type="int" >       41 </v>
  <v type="int" >       28 </v>
  <v type="int" >       17 </v>
  <v type="int" >       37 </v>
  <v type="int" >       52 </v>
  <v type="int" >       49 </v>
  <v type="int" >       21 </v>
  <v type="int" >       33 </v>
  <v type="int" >       51 </v>
  <v type="int" >       50 </v>
  <v type="int" >       23 </v>
  <v type="int" >       38 </v>
  <v type="int" >       19 </v>
  <v type="int" >       34 </v>
  <v type="int" >       13 </v>
  <v type="int" >       43 </v>
  <v type="int" >       10 </v>
  <v type="int" >       27 </v>
  <v type="int" >       26 </v>
  <v type="int" >       61 </v>
  <v type="int" >       59 </v>
  <v type="int" >       45 </v>
  <v type="int" >       16 </v>
  <v type="int" >       64 </v>
  <v type="int" >       42 </v>
  <v type="int" >       32 </v>
  <v type="int" >        5 </v>
  <v type="int" >        2 </v>
  <v type="int" >        3 </v>
  <v type="int" >       31 </v>
  <v type="int" >        9 </v>
  <v type="int" >       25 </v>
  <v type="int" >       57 </v>
  <v type="int" >       15 </v>
  <v type="int" >       30 </v>
  <v type="int" >       47 </v>
  <v type="int" >       44 </v>
  <v type="int" >       62 </v>
  <v type="int" >       46 </v>
  <v type="int" >       60 </v>
  <v type="int" >       12 </v>
  <v type="int" >       22 </v>
  <v type="int" >       24 </v>
  <v type="int" >       18 </v>
  <v type="int" >       35 </v>
  <v type="int" >       54 </v>
  <v type="int" >       53 </v>
  <v type="int" >       39 </v>
  <v type="int" >       36 </v>
  <v type="int" >       40 </v>
  <v type="int" >       20 </v>
  <v type="int" >       56 </v>
  <v type="int" >       55 </v>
  <v type="int" >       11 </v>
  <v type="int" >       29 </v>
  <v type="int" >       48 </v>
  <v type="int" >       58 </v>
  <v type="int" >        7 </v>
  <v type="int" >        6 </v>
  <v type="int" >        4 </v>
  <v type="int" >        8 </v>
 </varray>
 <kpoints>
  <generation param="Gamma">
   <v type="int" name="divisions">       1        1        1 </v>
   <v name="usershift">      0.00000000       0.00000000       0.00000000 </v>
   <v name="genvec1">      1.00000000       0.00000000       0.00000000 </v>
   <v name="genvec2">      0.00000000       1.00000000       0.00000000 </v>
   <v name="genvec3">      0.00000000       0.00000000       1.00000000 </v>
   <v name="shift">      0.00000000       0.00000000       0.00000000 </v>
  </generation>
  <varray name="kpointlist" >
   <v>       0.00000000       0.00000000       0.00000000 </v>
  </varray>
  <varray name="weights" >
   <v>       1.00000000 </v>
  </varray>
 </kpoints>
 <parameters>
  <separator name="general" >
   <i type="string" name="SYSTEM">si_2x2x2</i>
   <i type="logical" name="LCOMPAT"> F  </i>
  </separator>
  <separator name="electronic" >
   <i type="string" name="PREC">low</i>
   <i name="ENMAX">    250.00000000</i>
   <i name="ENAUG">    322.06900000</i>
   <i name="EDIFF">      0.00000100</i>
   <i type="int" name="IALGO">    48</i>
   <i type="int" name="IWAVPR">    12</i>
   <i type="int" name="NBANDS">   161</i>
   <i name="NELECT">    256.00000000</i>
   <i type="int" name="TURBO">     0</i>
   <i type="int" name="IRESTART">     0</i>
   <i type="int" name="NREBOOT">     0</i>
   <i type="int" name="NMIN">     0</i>
   <i name="EREF">      0.00000000</i>
   <separator name="electronic smearing" >
    <i type="int" name="ISMEAR">     0</i>
    <i name="SIGMA">      0.10000000</i>
    <i name="KSPACING">      0.50000000</i>
    <i type="logical" name="KGAMMA"> T  </i>
   </separator>
   <separator name="electronic projectors" >
    <i type="logical" name="LREAL"> T  </i>
    <v name="ROPT">     -0.01000000</v>
    <i type="int" name="LMAXPAW">  -100</i>
    <i type="int" name="LMAXMIX">     2</i>
    <i type="logical" name="NLSPLINE"> F  </i>
   </separator>
   <separator name="electronic startup" >
    <i type="int" name="ISTART">     1</i>
    <i type="int" name="ICHARG">     0</i>
    <i type="int" name="INIWAV">     1</i>
   </separator>
   <separator name="electronic spin" >
    <i type="int" name="ISPIN">     1</i>
    <i type="logical" name="LNONCOLLINEAR"> F  </i>
    <v name="MAGMOM">      1.00000000      1.00000000      1.00000000      1.00000000      1.00000000      1.00000000      1.00000000      1.00000000      1.00000000      1.00000000      1.00000000      1.00000000      1.00000000      1.00000000      1.00000000      1.00000000      1.00000000      1.00000000      1.00000000      1.00000000
      1.00000000      1.00000000      1.00000000      1.00000000      1.00000000      1.00000000      1.00000000      1.00000000      1.00000000      1.00000000      1.00000000      1.00000000      1.00000000      1.00000000      1.00000000      1.00000000      1.00000000      1.00000000      1.00000000      1.00000000
      1.00000000      1.00000000      1.00000000      1.00000000      1.00000000      1.00000000      1.00000000      1.00000000      1.00000000      1.00000000      1.00000000      1.00000000      1.00000000      1.00000000      1.00000000      1.00000000      1.00000000      1.00000000      1.00000000      1.00000000
      1.00000000      1.00000000      1.00000000      1.00000000</v>
    <i name="NUPDOWN">     -1.00000000</i>
    <i type="logical" name="LSORBIT"> F  </i>
    <v name="SAXIS">      0.00000000      0.00000000      1.00000000</v>
    <i type="logical" name="LSPIRAL"> F  </i>
    <v name="QSPIRAL">      0.00000000      0.00000000      0.00000000</v>
    <i type="logical" name="LZEROZ"> F  </i>
   </separator>
   <separator name="electronic exchange-correlation" >
    <i type="logical" name="LASPH"> F  </i>
    <i type="logical" name="LMETAGGA"> F  </i>
   </separator>
   <separator name="electronic convergence" >
    <i type="int" name="NELM">   150</i>
    <i type="int" name="NELMDL">     0</i>
    <i type="int" name="NELMIN">     2</i>
    <i name="ENINI">    250.00000000</i>
    <separator name="electronic convergence detail" >
     <i type="logical" name="LDIAG"> T  </i>
     <i type="logical" name="LSUBROT"> F  </i>
     <i name="WEIMIN">      0.00100000</i>
     <i name="EBREAK">      0.00000000</i>
     <i name="DEPER">      0.30000000</i>
     <i type="int" name="NRMM">     4</i>
     <i name="TIME">      0.40000000</i>
    </separator>
   </separator>
   <separator name="electronic mixer" >
    <i name="AMIX">      0.40000000</i>
    <i name="BMIX">      1.00000000</i>
    <i name="AMIN">      0.10000000</i>
    <i name="AMIX_MAG">      1.60000000</i>
    <i name="BMIX_MAG">      1.00000000</i>
    <separator name="electronic mixer details" >
     <i type="int" name="IMIX">     4</i>
     <i type="logical" name="MIXFIRST"> F  </i>
     <i type="int" name="MAXMIX">   -45</i>
     <i name="WC">    100.00000000</i>
     <i type="int" name="INIMIX">     1</i>
     <i type="int" name="MIXPRE">     1</i>
     <i type="int" name="MREMOVE">     5</i>
    </separator>
   </separator>
   <separator name="electronic dipolcorrection" >
    <i type="logical" name="LDIPOL"> F  </i>
    <i type="logical" name="LMONO"> F  </i>
    <i type="int" name="IDIPOL">     0</i>
    <i name="EPSILON">      1.00000000</i>
    <v name="DIPOL">   -100.00000000   -100.00000000   -100.00000000</v>
    <i name="EFIELD">      0.00000000</i>
   </separator>
  </separator>
  <separator name="grids" >
   <i type="int" name="NGX">    42</i>
   <i type="int" name="NGY">    42</i>
   <i type="int" name="NGZ">    42</i>
   <i type="int" name="NGXF">    48</i>
   <i type="int" name="NGYF">    48</i>
   <i type="int" name="NGZF">    48</i>
   <i type="logical" name="ADDGRID"> F  </i>
  </separator>
  <separator name="ionic" >
   <i type="int" name="NSW">   100</i>
   <i type="int" name="IBRION">     0</i>
   <i type="int" name="MDALGO">     2</i>
   <i type="int" name="ISIF">     3</i>
   <i name="PSTRESS">      0.00000000</i>
   <i name="EDIFFG">      0.00001000</i>
   <i type="int" name="NFREE">     0</i>
   <i name="POTIM">      3.00000000</i>
   <i name="SMASS">      1.00000000</i>
   <i name="SCALEE">      1.00000000</i>
  </separator>
  <separator name="ionic md" >
   <i name="TEBEG">    600.00000000</i>
   <i name="TEEND">    600.00000000</i>
   <i type="int" name="NBLOCK">     1</i>
   <i type="int" name="KBLOCK">   100</i>
   <i type="int" name="NPACO">   256</i>
   <i name="APACO">     16.00000000</i>
  </separator>
  <separator name="symmetry" >
   <i type="int" name="ISYM">     0</i>
   <i name="SYMPREC">      0.00001000</i>
  </separator>
  <separator name="dos" >
   <i type="int" name="LORBIT">     0</i>
   <v name="RWIGS">     -1.00000000</v>
   <i type="int" name="NEDOS">   301</i>
   <i name="EMIN">     10.00000000</i>
   <i name="EMAX">    -10.00000000</i>
   <i name="EFERMI">      0.00000000</i>
  </separator>
  <separator name="writing" >
   <i type="int" name="NWRITE">     2</i>
   <i type="logical" name="LWAVE"> T  </i>
   <i type="logical" name="LDOWNSAMPLE"> F  </i>
   <i type="logical" name="LCHARG"> T  </i>
   <i type="logical" name="LPARD"> F  </i>
   <i type="logical" name="LVTOT"> F  </i>
   <i type="logical" name="LVHAR"> F  </i>
   <i type="logical" name="LELF"> F  </i>
   <i type="logical" name="LOPTICS"> F  </i>
   <v name="STM">      0.00000000      0.00000000      0.00000000      0.00000000      0.00000000      0.00000000      0.00000000</v>
  </separator>
  <separator name="performance" >
   <i type="int" name="NPAR">     1</i>
   <i type="int" name="NSIM">     4</i>
   <i type="int" name="NBLK">    -1</i>
   <i type="logical" name="LPLANE"> T  </i>
   <i type="logical" name="LSCALAPACK"> T  </i>
   <i type="logical" name="LSCAAWARE"> F  </i>
   <i type="logical" name="LSCALU"> F  </i>
   <i type="logical" name="LASYNC"> F  </i>
   <i type="logical" name="LORBITALREAL"> F  </i>
  </separator>
  <separator name="miscellaneous" >
   <i type="int" name="IDIOT">     3</i>
   <i type="int" name="ISPECIAL">     0</i>
   <i type="logical" name="LMUSIC"> F  </i>
   <v name="POMASS">     28.08500000</v>
   <v name="DARWINR">      0.00000000</v>
   <v name="DARWINV">      1.00000000</v>
   <i type="logical" name="LCORR"> T  </i>
  </separator>
  <i type="logical" name="GGA_COMPAT"> T  </i>
  <i type="logical" name="LBERRY"> F  </i>
  <i type="int" name="ICORELEVEL">     0</i>
  <i type="logical" name="LDAU"> F  </i>
  <i type="int" name="I_CONSTRAINED_M">     0</i>
  <separator name="electronic exchange-correlation" >
   <i type="string" name="GGA">PS</i>
   <i type="int" name="VOSKOWN">     0</i>
   <i type="logical" name="LHFCALC"> F  </i>
   <i type="string" name="PRECFOCK"></i>
   <i type="logical" name="LSYMGRAD"> F  </i>
   <i type="logical" name="LHFONE"> F  </i>
   <i type="logical" name="LRHFCALC"> F  </i>
   <i type="logical" name="LTHOMAS"> F  </i>
   <i type="logical" name="LMODELHF"> F  </i>
   <i name="ENCUT4O">     -1.00000000</i>
   <i type="int" name="EXXOEP">     0</i>
   <i type="int" name="FOURORBIT">     0</i>
   <i name="AEXX">      0.00000000</i>
   <i name="HFALPHA">      0.00000000</i>
   <i name="MCALPHA">      0.00000000</i>
   <i name="ALDAX">      1.00000000</i>
   <i name="AGGAX">      1.00000000</i>
   <i name="ALDAC">      1.00000000</i>
   <i name="AGGAC">      1.00000000</i>
   <i type="int" name="NKREDX">     1</i>
   <i type="int" name="NKREDY">     1</i>
   <i type="int" name="NKREDZ">     1</i>
   <i type="logical" name="SHIFTRED"> F  </i>
   <i type="logical" name="ODDONLY"> F  </i>
   <i type="logical" name="EVENONLY"> F  </i>
   <i type="int" name="LMAXFOCK">     0</i>
   <i type="int" name="NMAXFOCKAE">     0</i>
   <i type="logical" name="LFOCKAEDFT"> F  </i>
   <i name="HFSCREEN">      0.00000000</i>
   <i name="HFSCREENC">      0.00000000</i>
   <i type="int" name="NBANDSGWLOW">     0</i>
  </separator>
  <separator name="vdW DFT" >
   <i type="logical" name="LUSE_VDW"> F  </i>
   <i name="Zab_VDW">     -0.84910000</i>
   <i name="PARAM1">      0.12340000</i>
   <i name="PARAM2">      1.00000000</i>
   <i name="PARAM3">      0.00000000</i>
  </separator>
  <separator name="model GW" >
   <i type="int" name="MODEL_GW">     0</i>
   <i name="MODEL_EPS0">     12.01369721</i>
   <i name="MODEL_ALPHA">      1.00000000</i>
  </separator>
  <separator name="linear response parameters" >
   <i type="logical" name="LEPSILON"> F  </i>
   <i type="logical" name="LRPA"> F  </i>
   <i type="logical" name="LNABLA"> F  </i>
   <i type="logical" name="LVEL"> F  </i>
   <i type="int" name="KINTER">     0</i>
   <i name="CSHIFT">      0.10000000</i>
   <i name="OMEGAMAX">     -1.00000000</i>
   <i name="DEG_THRESHOLD">      0.00200000</i>
   <i name="RTIME">     -0.10000000</i>
   <i name="WPLASMAI">      0.00000000</i>
   <v name="DFIELD">      0.00000000      0.00000000      0.00000000</v>
   <v name="WPLASMA">      0.00000000      0.00000000      0.00000000      0.00000000      0.00000000      0.00000000      0.00000000      0.00000000      0.00000000</v>
  </separator>
  <separator name="orbital magnetization" >
   <i type="logical" name="NUCIND"> F  </i>
   <v name="MAGPOS">      0.00000000      0.00000000      0.00000000</v>
   <i type="logical" name="LNICSALL"> T  </i>
   <i type="logical" name="ORBITALMAG"> F  </i>
   <i type="logical" name="LMAGBLOCH"> F  </i>
   <i type="logical" name="LCHIMAG"> F  </i>
   <i type="logical" name="LGAUGE"> T  </i>
   <i type="int" name="MAGATOM">     0</i>
   <v name="MAGDIPOL">      0.00000000      0.00000000      0.00000000</v>
   <v name="AVECCONST">      0.00000000      0.00000000      0.00000000</v>
  </separator>
  <separator name="response functions" >
   <i type="logical" name="LADDER"> F  </i>
   <i type="logical" name="LRPAFORCE"> F  </i>
   <i type="logical" name="LFXC"> F  </i>
   <i type="logical" name="LHARTREE"> T  </i>
   <i type="int" name="IBSE">     0</i>
   <v type="int" name="KPOINT">    -1     0     0     0</v>
   <i type="logical" name="LTCTE"> F  </i>
   <i type="logical" name="LTETE"> F  </i>
   <i type="logical" name="LTRIPLET"> F  </i>
   <i type="logical" name="LFXCEPS"> F  </i>
   <i type="logical" name="LFXHEG"> F  </i>
   <i type="int" name="NATURALO">     2</i>
   <i type="logical" name="L2ORDER"> F  </i>
   <i type="logical" name="LMP2LT"> F  </i>
   <i type="logical" name="LUSEW"> F  </i>
   <i name="ENCUTGW">     -2.00000000</i>
   <i name="ENCUTGWSOFT">     -2.00000000</i>
   <i name="ENCUTLF">     -1.00000000</i>
   <i type="int" name="LMAXMP2">    -1</i>
   <i name="SCISSOR">      0.00000000</i>
   <i type="int" name="NOMEGA">     0</i>
   <i type="int" name="NOMEGAR">     0</i>
   <i type="int" name="NBANDSGW">    -1</i>
   <i type="int" name="NBANDSO">    -1</i>
   <i type="int" name="NBANDSV">    -1</i>
   <i type="int" name="NELM">   150</i>
   <i type="int" name="NELMHF">     1</i>
   <i type="int" name="DIM">     3</i>
   <i type="int" name="ANTIRES">     0</i>
   <i name="OMEGAMAX">    -30.00000000</i>
   <i name="OMEGAMIN">    -30.00000000</i>
   <i name="OMEGATL">   -200.00000000</i>
   <i type="int" name="OMEGAGRID">   140</i>
   <i name="CSHIFT">     -0.10000000</i>
   <i type="logical" name="SELFENERGY"> F  </i>
   <i type="logical" name="LSPECTRAL"> F  </i>
   <i type="logical" name="LSPECTRALGW"> F  </i>
   <i type="logical" name="LSINGLES"> F  </i>
   <i type="logical" name="LFERMIGW"> F  </i>
   <i type="logical" name="ODDONLYGW"> F  </i>
   <i type="logical" name="EVENONLYGW"> F  </i>
   <i type="int" name="NKREDLFX">     1</i>
   <i type="int" name="NKREDLFY">     1</i>
   <i type="int" name="NKREDLFZ">     1</i>
   <i type="int" name="MAXMEM">  2800</i>
   <i type="int" name="TELESCOPE">     0</i>
   <i type="int" name="TAUPAR">     1</i>
   <i type="int" name="OMEGAPAR">    -1</i>
   <i name="LAMBDA">      1.00000000</i>
  </separator>
  <separator name="External order field" >
   <i name="OFIELD_KAPPA">      0.00000000</i>
   <v name="OFIELD_K">      0.00000000      0.00000000      0.00000000</v>
   <i name="OFIELD_Q6_NEAR">      0.00000000</i>
   <i name="OFIELD_Q6_FAR">      0.00000000</i>
   <i name="OFIELD_A">      0.00000000</i>
  </separator>
 </parameters>
 <atominfo>
  <atoms>      64 </atoms>
  <types>       1 </types>
  <array name="atoms" >
   <dimension dim="1">ion</dimension>
   <field type="string">element</field>
   <field type="int">atomtype</field>
   <set>
    <rc><c>Si</c><c>   1</c></rc>
    <rc><c>Si</c><c>   1</c></rc>
    <rc><c>Si</c><c>   1</c></rc>
    <rc><c>Si</c><c>   1</c></rc>
    <rc><c>Si</c><c>   1</c></rc>
    <rc><c>Si</c><c>   1</c></rc>
    <rc><c>Si</c><c>   1</c></rc>
    <rc><c>Si</c><c>   1</c></rc>
    <rc><c>Si</c><c>   1</c></rc>
    <rc><c>Si</c><c>   1</c></rc>
    <rc><c>Si</c><c>   1</c></rc>
    <rc><c>Si</c><c>   1</c></rc>
    <rc><c>Si</c><c>   1</c></rc>
    <rc><c>Si</c><c>   1</c></rc>
    <rc><c>Si</c><c>   1</c></rc>
    <rc><c>Si</c><c>   1</c></rc>
    <rc><c>Si</c><c>   1</c></rc>
    <rc><c>Si</c><c>   1</c></rc>
    <rc><c>Si</c><c>   1</c></rc>
    <rc><c>Si</c><c>   1</c></rc>
    <rc><c>Si</c><c>   1</c></rc>
    <rc><c>Si</c><c>   1</c></rc>
    <rc><c>Si</c><c>   1</c></rc>
    <rc><c>Si</c><c>   1</c></rc>
    <rc><c>Si</c><c>   1</c></rc>
    <rc><c>Si</c><c>   1</c></rc>
    <rc><c>Si</c><c>   1</c></rc>
    <rc><c>Si</c><c>   1</c></rc>
    <rc><c>Si</c><c>   1</c></rc>
    <rc><c>Si</c><c>   1</c></rc>
    <rc><c>Si</c><c>   1</c></rc>
    <rc><c>Si</c><c>   1</c></rc>
    <rc><c>Si</c><c>   1</c></rc>
    <rc><c>Si</c><c>   1</c></rc>
    <rc><c>Si</c><c>   1</c></rc>
    <rc><c>Si</c><c>   1</c></rc>
    <rc><c>Si</c><c>   1</c></rc>
    <rc><c>Si</c><c>   1</c></rc>
    <rc><c>Si</c><c>   1</c></rc>
    <rc><c>Si</c><c>   1</c></rc>
    <rc><c>Si</c><c>   1</c></rc>
    <rc><c>Si</c><c>   1</c></rc>
    <rc><c>Si</c><c>   1</c></rc>
    <rc><c>Si</c><c>   1</c></rc>
    <rc><c>Si</c><c>   1</c></rc>
    <rc><c>Si</c><c>   1</c></rc>
    <rc><c>Si</c><c>   1</c></rc>
    <rc><c>Si</c><c>   1</c></rc>
    <rc><c>Si</c><c>   1</c></rc>
    <rc><c>Si</c><c>   1</c></rc>
    <rc><c>Si</c><c>   1</c></rc>
    <rc><c>Si</c><c>   1</c></rc>
    <rc><c>Si</c><c>   1</c></rc>
    <rc><c>Si</c><c>   1</c></rc>
    <rc><c>Si</c><c>   1</c></rc>
    <rc><c>Si</c><c>   1</c></rc>
    <rc><c>Si</c><c>   1</c></rc>
    <rc><c>Si</c><c>   1</c></rc>
    <rc><c>Si</c><c>   1</c></rc>
    <rc><c>Si</c><c>   1</c></rc>
    <rc><c>Si</c><c>   1</c></rc>
    <rc><c>Si</c><c>   1</c></rc>
    <rc><c>Si</c><c>   1</c></rc>
    <rc><c>Si</c><c>   1</c></rc>
   </set>
  </array>
  <array name="atomtypes" >
   <dimension dim="1">type</dimension>
   <field type="int">atomspertype</field>
   <field type="string">element</field>
   <field>mass</field>
   <field>valence</field>
   <field type="string">pseudopotential</field>
   <set>
    <rc><c>  64</c><c>Si</c><c>     28.08500000</c><c>      4.00000000</c><c>  PAW_PBE Si 05Jan2001                  </c></rc>
   </set>
  </array>
 </atominfo>
 <structure name="initialpos" >
  <crystal>
   <varray name="basis" >
    <v>      10.86180000       0.00000000       0.00000000 </v>
    <v>       0.00000000      10.86180000       0.00000000 </v>
    <v>       0.00000000       0.00000000      10.86180000 </v>
   </varray>
   <i name="volume">   1281.46103541 </i>
   <varray name="rec_basis" >
    <v>       0.09206577       0.00000000       0.00000000 </v>
    <v>       0.00000000       0.09206577       0.00000000 </v>
    <v>       0.00000000       0.00000000       0.09206577 </v>
   </varray>
  </crystal>
  <varray name="positions" >
   <v>       0.00913475       0.00306694       0.99955124 </v>
   <v>       0.51035749       0.98353185       0.99623598 </v>
   <v>       0.99119431       0.50236888       0.00162551 </v>
   <v>       0.49416598       0.49995237       0.99962929 </v>
   <v>       0.00290396       0.98994698       0.49476542 </v>
   <v>       0.48907612       0.01760360       0.51412988 </v>
   <v>       0.00987047       0.48295459       0.51462205 </v>
   <v>       0.50232125       0.51453045       0.49961190 </v>
   <v>       0.36923159       0.13027147       0.37364894 </v>
   <v>       0.87541657       0.12305672       0.37051264 </v>
   <v>       0.38182184       0.62857477       0.36279993 </v>
   <v>       0.88237489       0.60681759       0.38519414 </v>
   <v>       0.37248392       0.12725335       0.88035897 </v>
   <v>       0.88471669       0.13269141       0.88373552 </v>
   <v>       0.37117882       0.61904492       0.87567374 </v>
   <v>       0.86949168       0.62639411       0.87263117 </v>
   <v>       0.00404341       0.24535861       0.23533788 </v>
   <v>       0.50099889       0.24843653       0.24524058 </v>
   <v>       0.99085786       0.73735323       0.25221281 </v>
   <v>       0.50857918       0.75170550       0.24906852 </v>
   <v>       0.99791882       0.24606384       0.74891084 </v>
   <v>       0.50257698       0.23757565       0.75443976 </v>
   <v>       0.99193003       0.75421424       0.74214078 </v>
   <v>       0.49270773       0.74778955       0.74764171 </v>
   <v>       0.37682977       0.37263787       0.12212640 </v>
   <v>       0.87340661       0.37410047       0.12132754 </v>
   <v>       0.38014307       0.87743433       0.12796724 </v>
   <v>       0.87501646       0.88463603       0.13064250 </v>
   <v>       0.37783732       0.37485989       0.61917990 </v>
   <v>       0.86665021       0.37626978       0.63132652 </v>
   <v>       0.36960359       0.88023226       0.63820957 </v>
   <v>       0.86429981       0.88119981       0.61398909 </v>
   <v>       0.25480491       0.00178618       0.25248312 </v>
   <v>       0.74236344       0.00796418       0.26130276 </v>
   <v>       0.24622588       0.50595038       0.24497237 </v>
   <v>       0.74257836       0.49442015       0.24171906 </v>
   <v>       0.24240676       0.00229827       0.75410363 </v>
   <v>       0.74700391       0.00948254       0.74802114 </v>
   <v>       0.25555552       0.50734896       0.74886070 </v>
   <v>       0.75555348       0.50521969       0.75483764 </v>
   <v>       0.13410147       0.12394129       0.12392717 </v>
   <v>       0.62053255       0.12375046       0.12760015 </v>
   <v>       0.11852042       0.62525221       0.11739345 </v>
   <v>       0.62801145       0.62652057       0.12609837 </v>
   <v>       0.11380014       0.12142968       0.61490849 </v>
   <v>       0.62483940       0.13247005       0.61221325 </v>
   <v>       0.13183140       0.62608806       0.62225113 </v>
   <v>       0.62873202       0.62609493       0.63215898 </v>
   <v>       0.25069540       0.25418940       0.00624680 </v>
   <v>       0.74732473       0.24731729       0.00325908 </v>
   <v>       0.25194374       0.74212424       0.00399314 </v>
   <v>       0.76121378       0.75849433       0.00894766 </v>
   <v>       0.24972706       0.24967131       0.50014301 </v>
   <v>       0.76212812       0.24923470       0.49595038 </v>
   <v>       0.26324185       0.74966994       0.50109716 </v>
   <v>       0.75141266       0.74925075       0.49356271 </v>
   <v>       0.12582591       0.37027153       0.37198627 </v>
   <v>       0.61784004       0.38480713       0.38162784 </v>
   <v>       0.12743326       0.86257764       0.37246032 </v>
   <v>       0.61272045       0.87517713       0.38286339 </v>
   <v>       0.12780189       0.37759795       0.86867811 </v>
   <v>       0.61724455       0.37916693       0.87527688 </v>
   <v>       0.12520399       0.87158651       0.88046243 </v>
   <v>       0.63224138       0.86091805       0.86610542 </v>
  </varray>
  <varray name="velocities" >
   <v>       0.00100256       0.00034497       0.00127369 </v>
   <v>       0.00129167       0.00023107      -0.00072202 </v>
   <v>      -0.00164971      -0.00140004       0.00026501 </v>
   <v>      -0.00029941      -0.00062822       0.00006202 </v>
   <v>       0.00044933      -0.00213315      -0.00153067 </v>
   <v>      -0.00066317       0.00266121       0.00016414 </v>
   <v>       0.00025468      -0.00170867       0.00020307 </v>
   <v>      -0.00028189      -0.00039846      -0.00196215 </v>
   <v>       0.00040842       0.00011259       0.00077109 </v>
   <v>       0.00001384      -0.00052357      -0.00025728 </v>
   <v>       0.00074733      -0.00104453      -0.00056575 </v>
   <v>      -0.00034843      -0.00159372       0.00266985 </v>
   <v>       0.00105590       0.00024501      -0.00023979 </v>
   <v>      -0.00145897       0.00054940       0.00117488 </v>
   <v>      -0.00097558      -0.00094582      -0.00051906 </v>
   <v>      -0.00100012       0.00055007       0.00000497 </v>
   <v>       0.00078685       0.00107038      -0.00119279 </v>
   <v>       0.00138893       0.00040086       0.00100201 </v>
   <v>      -0.00143447      -0.00113229       0.00088190 </v>
   <v>       0.00115454      -0.00075221      -0.00005294 </v>
   <v>       0.00063672       0.00019825      -0.00030578 </v>
   <v>       0.00028805      -0.00112057       0.00035862 </v>
   <v>      -0.00031091       0.00135050      -0.00127587 </v>
   <v>      -0.00011601       0.00060163       0.00053751 </v>
   <v>      -0.00081448       0.00114331       0.00074962 </v>
   <v>      -0.00091012       0.00010269      -0.00062159 </v>
   <v>       0.00064158      -0.00010707      -0.00054766 </v>
   <v>      -0.00031950       0.00158676       0.00200681 </v>
   <v>       0.00078244       0.00067579      -0.00036539 </v>
   <v>      -0.00070548       0.00093407       0.00100460 </v>
   <v>      -0.00064814       0.00041725       0.00291329 </v>
   <v>      -0.00112176       0.00106661      -0.00010019 </v>
   <v>       0.00019412      -0.00156389       0.00130993 </v>
   <v>      -0.00117785      -0.00117545       0.00107967 </v>
   <v>       0.00117935      -0.00044092       0.00021158 </v>
   <v>      -0.00082545      -0.00009368      -0.00018332 </v>
   <v>      -0.00097423      -0.00149587       0.00225114 </v>
   <v>       0.00064658      -0.00057611       0.00078103 </v>
   <v>       0.00102854       0.00005529       0.00055862 </v>
   <v>      -0.00008375       0.00024802       0.00120269 </v>
   <v>       0.00067697       0.00015614      -0.00206262 </v>
   <v>      -0.00110488       0.00153592      -0.00119223 </v>
   <v>      -0.00138403       0.00094596       0.00137681 </v>
   <v>       0.00166214       0.00087175       0.00100319 </v>
   <v>      -0.00005086       0.00008204      -0.00033566 </v>
   <v>      -0.00029775       0.00282217      -0.00063561 </v>
   <v>       0.00047876      -0.00010974       0.00040972 </v>
   <v>      -0.00011355       0.00030655      -0.00004133 </v>
   <v>       0.00079243       0.00108995      -0.00065205 </v>
   <v>      -0.00085131      -0.00019256       0.00006549 </v>
   <v>      -0.00062951       0.00004199      -0.00115363 </v>
   <v>       0.00017443       0.00169701       0.00069092 </v>
   <v>       0.00082746      -0.00031187      -0.00121566 </v>
   <v>      -0.00055290       0.00058657      -0.00038969 </v>
   <v>       0.00009345      -0.00127338      -0.00090202 </v>
   <v>       0.00105787      -0.00051519      -0.00089311 </v>
   <v>       0.00058187      -0.00095924      -0.00040062 </v>
   <v>      -0.00114346      -0.00029581      -0.00092034 </v>
   <v>      -0.00014537      -0.00225454      -0.00208101 </v>
   <v>      -0.00033871       0.00006204      -0.00078366 </v>
   <v>       0.00154963      -0.00033488      -0.00025857 </v>
   <v>      -0.00079573      -0.00121370      -0.00090771 </v>
   <v>      -0.00007926       0.00076979      -0.00071423 </v>
   <v>       0.00176033       0.00078156      -0.00100185 </v>
  </varray>
 </structure>
 <calculation>
  <scstep>
   <time name="diag">    0.17    0.17</time>
   <time name="diis">    0.42    0.42</time>
   <time name="orth">    0.04    0.04</time>
   <time name="total">    0.70    0.70</time>
   <energy>
    <i name="alphaZ">    107.59920118 </i>
    <i name="ewald">  -7309.90995240 </i>
    <i name="hartreedc">   -478.90464545 </i>
    <i name="XCdc">   -538.02955268 </i>
    <i name="pawpsdc">  33883.76454739 </i>
    <i name="pawaedc"> -32784.68581880 </i>
    <i name="eentropy">     -0.04302929 </i>
    <i name="bandstr">    197.50488385 </i>
    <i name="atom">   6564.54007760 </i>
    <i name="e_fr_energy">   -358.16428860 </i>
    <i name="e_wo_entrp">   -358.12125930 </i>
    <i name="e_0_energy">   -358.14277395 </i>
   </energy>
  </scstep>
  <scstep>
   <time name="diag">    0.16    0.16</time>
   <time name="diis">    0.42    0.42</time>
   <time name="orth">    0.04    0.04</time>
   <time name="total">    0.70    0.70</time>
   <energy>
    <i name="e_fr_energy">   -356.73970136 </i>
    <i name="e_wo_entrp">   -356.71365663 </i>
    <i name="e_0_energy">   -356.72667899 </i>
   </energy>
  </scstep>
  <scstep>
   <time name="diag">    0.16    0.16</time>
   <time name="diis">    0.42    0.42</time>
   <time name="orth">    0.04    0.04</time>
   <time name="total">    0.70    0.70</time>
   <energy>
    <i name="e_fr_energy">   -356.52672476 </i>
    <i name="e_wo_entrp">   -356.50466782 </i>
    <i name="e_0_energy">   -356.51569629 </i>
   </energy>
  </scstep>
  <scstep>
   <time name="diag">    0.16    0.16</time>
   <time name="diis">    0.42    0.42</time>
   <time name="orth">    0.04    0.04</time>
   <time name="total">    0.70    0.70</time>
   <energy>
    <i name="e_fr_energy">   -356.50275033 </i>
    <i name="e_wo_entrp">   -356.47855322 </i>
    <i name="e_0_energy">   -356.49065178 </i>
   </energy>
  </scstep>
  <scstep>
   <time name="diag">    0.16    0.16</time>
   <time name="diis">    0.42    0.42</time>
   <time name="orth">    0.04    0.04</time>
   <time name="total">    0.70    0.70</time>
   <energy>
    <i name="e_fr_energy">   -356.50087447 </i>
    <i name="e_wo_entrp">   -356.47678431 </i>
    <i name="e_0_energy">   -356.48882939 </i>
   </energy>
  </scstep>
  <scstep>
   <time name="diag">    0.16    0.16</time>
   <time name="diis">    0.42    0.42</time>
   <time name="orth">    0.04    0.04</time>
   <time name="total">    0.70    0.70</time>
   <energy>
    <i name="e_fr_energy">   -356.50041860 </i>
    <i name="e_wo_entrp">   -356.47647326 </i>
    <i name="e_0_energy">   -356.48844593 </i>
   </energy>
  </scstep>
  <scstep>
   <time name="diag">    0.16    0.16</time>
   <time name="diis">    0.42    0.42</time>
   <time name="orth">    0.04    0.04</time>
   <time name="total">    0.70    0.70</time>
   <energy>
    <i name="e_fr_energy">   -356.50035725 </i>
    <i name="e_wo_entrp">   -356.47636421 </i>
    <i name="e_0_energy">   -356.48836073 </i>
   </energy>
  </scstep>
  <scstep>
   <time name="diag">    0.16    0.16</time>
   <time name="diis">    0.41    0.41</time>
   <time name="orth">    0.04    0.04</time>
   <time name="total">    0.69    0.69</time>
   <energy>
    <i name="e_fr_energy">   -356.50033713 </i>
    <i name="e_wo_entrp">   -356.47634985 </i>
    <i name="e_0_energy">   -356.48834349 </i>
   </energy>
  </scstep>
  <scstep>
   <time name="diag">    0.16    0.16</time>
   <time name="diis">    0.39    0.39</time>
   <time name="orth">    0.04    0.04</time>
   <time name="total">    0.62    0.62</time>
   <energy>
    <i name="alphaZ">    107.59920118 </i>
    <i name="ewald">  -7309.90995240 </i>
    <i name="hartreedc">   -479.23846179 </i>
    <i name="XCdc">   -537.97036819 </i>
    <i name="pawpsdc">  33383.06215160 </i>
    <i name="pawaedc"> -32284.01495423 </i>
    <i name="eentropy">     -0.02397378 </i>
    <i name="bandstr">    199.45594306 </i>
    <i name="atom">   6564.54007760 </i>
    <i name="e_fr_energy">   -356.50033697 </i>
    <i name="e_wo_entrp">   -356.47636319 </i>
    <i name="e_0_energy">   -356.48835008 </i>
   </energy>
  </scstep>
  <structure>
   <crystal>
    <varray name="basis" >
     <v>      10.86180000       0.00000000       0.00000000 </v>
     <v>       0.00000000      10.86180000       0.00000000 </v>
     <v>       0.00000000       0.00000000      10.86180000 </v>
    </varray>
    <i name="volume">   1281.46103541 </i>
    <varray name="rec_basis" >
     <v>       0.09206577       0.00000000       0.00000000 </v>
     <v>       0.00000000       0.09206577       0.00000000 </v>
     <v>       0.00000000       0.00000000       0.09206577 </v>
    </varray>
   </crystal>
   <varray name="positions" >
    <v>       0.00913475       0.00306694       0.99955124 </v>
    <v>       0.51035749       0.98353185       0.99623598 </v>
    <v>       0.99119431       0.50236888       0.00162551 </v>
    <v>       0.49416598       0.49995237       0.99962929 </v>
    <v>       0.00290396       0.98994698       0.49476542 </v>
    <v>       0.48907612       0.01760360       0.51412988 </v>
    <v>       0.00987047       0.48295459       0.51462205 </v>
    <v>       0.50232125       0.51453045       0.49961190 </v>
    <v>       0.36923159       0.13027147       0.37364894 </v>
    <v>       0.87541657       0.12305672       0.37051264 </v>
    <v>       0.38182184       0.62857477       0.36279993 </v>
    <v>       0.88237489       0.60681759       0.38519414 </v>
    <v>       0.37248392       0.12725335       0.88035897 </v>
    <v>       0.88471669       0.13269141       0.88373552 </v>
    <v>       0.37117882       0.61904492       0.87567374 </v>
    <v>       0.86949168       0.62639411       0.87263117 </v>
    <v>       0.00404341       0.24535861       0.23533788 </v>
    <v>       0.50099889       0.24843653       0.24524058 </v>
    <v>       0.99085786       0.73735323       0.25221281 </v>
    <v>       0.50857918       0.75170550       0.24906852 </v>
    <v>       0.99791882       0.24606384       0.74891084 </v>
    <v>       0.50257698       0.23757565       0.75443976 </v>
    <v>       0.99193003       0.75421424       0.74214078 </v>
    <v>       0.49270773       0.74778955       0.74764171 </v>
    <v>       0.37682977       0.37263787       0.12212640 </v>
    <v>       0.87340661       0.37410047       0.12132754 </v>
    <v>       0.38014307       0.87743433       0.12796724 </v>
    <v>       0.87501646       0.88463603       0.13064250 </v>
    <v>       0.37783732       0.37485989       0.61917990 </v>
    <v>       0.86665021       0.37626978       0.63132652 </v>
    <v>       0.36960359       0.88023226       0.63820957 </v>
    <v>       0.86429981       0.88119981       0.61398909 </v>
    <v>       0.25480491       0.00178618       0.25248312 </v>
    <v>       0.74236344       0.00796418       0.26130276 </v>
    <v>       0.24622588       0.50595038       0.24497237 </v>
    <v>       0.74257836       0.49442015       0.24171906 </v>
    <v>       0.24240676       0.00229827       0.75410363 </v>
    <v>       0.74700391       0.00948254       0.74802114 </v>
    <v>       0.25555552       0.50734896       0.74886070 </v>
    <v>       0.75555348       0.50521969       0.75483764 </v>
    <v>       0.13410147       0.12394129       0.12392717 </v>
    <v>       0.62053255       0.12375046       0.12760015 </v>
    <v>       0.11852042       0.62525221       0.11739345 </v>
    <v>       0.62801145       0.62652057       0.12609837 </v>
    <v>       0.11380014       0.12142968       0.61490849 </v>
    <v>       0.62483940       0.13247005       0.61221325 </v>
    <v>       0.13183140       0.62608806       0.62225113 </v>
    <v>       0.62873202       0.62609493       0.63215898 </v>
    <v>       0.25069540       0.25418940       0.00624680 </v>
    <v>       0.74732473       0.24731729       0.00325908 </v>
    <v>       0.25194374       0.74212424       0.00399314 </v>
    <v>       0.76121378       0.75849433       0.00894766 </v>
    <v>       0.24972706       0.24967131       0.50014301 </v>
    <v>       0.76212812       0.24923470       0.49595038 </v>
    <v>       0.26324185       0.74966994       0.50109716 </v>
    <v>       0.75141266       0.74925075       0.49356271 </v>
    <v>       0.12582591       0.37027153       0.37198627 </v>
    <v>       0.61784004       0.38480713       0.38162784 </v>
    <v>       0.12743326       0.86257764       0.37246032 </v>
    <v>       0.61272045       0.87517713       0.38286339 </v>
    <v>       0.12780189       0.37759795       0.86867811 </v>
    <v>       0.61724455       0.37916693       0.87527688 </v>
    <v>       0.12520399       0.87158651       0.88046243 </v>
    <v>       0.63224138       0.86091805       0.86610542 </v>
   </varray>
  </structure>
  <varray name="forces" >
   <v>      -0.55226230      -0.38783684       0.66551390 </v>
   <v>      -0.61896318       1.23617261      -0.18410337 </v>
   <v>       0.74711555      -0.49779344      -1.30550318 </v>
   <v>       0.76322407       0.38329949       0.38083021 </v>
   <v>      -0.53539982       0.27521944      -0.73880736 </v>
   <v>      -0.42161730      -2.00504020      -1.35772350 </v>
   <v>      -0.23365238       0.77944060      -0.75423866 </v>
   <v>      -0.52427319      -0.71385983       0.44027880 </v>
   <v>       0.76465259      -0.00628897       0.11344379 </v>
   <v>       1.53498760       0.20229170       0.11524403 </v>
   <v>      -0.50843976      -0.12505754       0.72556113 </v>
   <v>      -0.88467349       0.13400873      -0.55919824 </v>
   <v>       0.35893730      -1.22396749       0.20880219 </v>
   <v>      -1.15779726      -0.92992514      -0.51517482 </v>
   <v>       0.68701150       1.02733240       0.34859121 </v>
   <v>       1.23903167       1.07831080       0.94619558 </v>
   <v>      -0.61939257       0.36763569       1.23694903 </v>
   <v>      -0.45759224       0.69671400       1.08505227 </v>
   <v>       0.51367724       0.68814926      -0.09850615 </v>
   <v>      -0.59478545       0.20997942      -0.44041969 </v>
   <v>       0.29924078       0.75243881      -0.30396194 </v>
   <v>      -0.32350651       1.60427052      -0.86995494 </v>
   <v>       0.51019100      -0.08806214       0.12903632 </v>
   <v>       0.52714958      -0.39679664       0.55339261 </v>
   <v>      -0.27083217       0.79174166       0.90757277 </v>
   <v>      -0.24564919      -0.25230474       0.20677590 </v>
   <v>      -0.22305173      -0.64203188      -0.32466326 </v>
   <v>       0.48282900       0.38066711       0.83961746 </v>
   <v>       0.37786216       0.27795293       0.86174533 </v>
   <v>       0.94034627      -0.68575388       0.17943541 </v>
   <v>       0.23402024       0.32173028      -0.84610816 </v>
   <v>       0.48179702      -0.01064149       1.02188113 </v>
   <v>      -0.56189933      -0.77382381       0.04114876 </v>
   <v>      -0.49943480      -1.14277122      -0.67461244 </v>
   <v>       0.17858927      -0.62662316       0.16323636 </v>
   <v>       0.87356427       0.12632487       1.54059336 </v>
   <v>      -0.44302960       0.58335659       0.26447909 </v>
   <v>       0.32027530      -0.22113311       0.07009836 </v>
   <v>      -0.62511783      -1.39159921      -0.65352295 </v>
   <v>      -1.79545907      -0.86877054      -0.04377195 </v>
   <v>      -0.00001176      -0.37190263      -0.09164952 </v>
   <v>       0.48211019      -0.74119832      -0.76660500 </v>
   <v>      -0.10588163      -0.10585892       0.78290510 </v>
   <v>       0.00020414       0.27363267      -1.00940948 </v>
   <v>       1.06459177       0.20214445       0.87661764 </v>
   <v>       1.11475154       0.29325640       1.58130754 </v>
   <v>      -0.43735254       0.34626537       0.25652978 </v>
   <v>       0.01824385       0.61795625      -0.77623444 </v>
   <v>      -0.08836088       0.07772919      -1.23650325 </v>
   <v>      -0.28122730       0.50373045      -0.32851156 </v>
   <v>       0.18939694       1.07557050      -0.13622913 </v>
   <v>      -0.89404816      -0.93709200      -1.01018238 </v>
   <v>      -0.45644486       0.16385742      -0.04737942 </v>
   <v>      -1.29339015       1.02129905      -0.19348964 </v>
   <v>      -0.39779675       0.05645988      -0.38633608 </v>
   <v>      -0.39514317      -0.67208987       0.25659297 </v>
   <v>       0.01067288      -0.01084538      -0.33530281 </v>
   <v>       0.97056845      -1.44655354      -0.98547899 </v>
   <v>       0.19563531       0.22932466      -0.23996953 </v>
   <v>       0.59078511       0.92043588       0.47036677 </v>
   <v>      -0.43944169      -0.09464506       0.56949916 </v>
   <v>       0.95407377      -0.74850225      -0.12056044 </v>
   <v>      -0.22643624      -0.50312270      -0.68130898 </v>
   <v>       0.10592367       0.88539648       0.28139525 </v>
  </varray>
  <varray name="stress" >
   <v>      11.61354907       4.21859011       0.15562362 </v>
   <v>       4.21858994      11.16211678       7.55533432 </v>
   <v>       0.15562353       7.55533439      10.45876041 </v>
  </varray>
  <energy>
   <i name="e_fr_energy">   -356.50033697 </i>
   <i name="e_wo_entrp">   -356.48835008 </i>
   <i name="e_0_energy">     -0.02397378 </i>
   <i name="kinetic">      3.62628582 </i>
   <i name="lattice kinetic">      0.00000000 </i>
   <i name="nosepot">      0.00000000 </i>
   <i name="nosekinetic">      0.00000000 </i>
   <i name="total">   -352.87405115 </i>
  </energy>
  <time name="totalsc">    7.40    7.41</time>
 </calculation>
 <calculation>
  <scstep>
   <time name="diag">    0.17    0.17</time>
   <time name="diis">    0.42    0.42</time>
   <time name="orth">    0.04    0.04</time>
   <time name="total">    0.70    0.70</time>
   <energy>
    <i name="alphaZ">    107.59920118 </i>
    <i name="ewald">  -7310.46464223 </i>
    <i name="hartreedc">   -478.90995023 </i>
    <i name="XCdc">   -538.01189538 </i>
    <i name="pawpsdc">  33382.90642209 </i>
    <i name="pawaedc"> -32283.85931881 </i>
    <i name="eentropy">     -0.02299363 </i>
    <i name="bandstr">    199.90332477 </i>
    <i name="atom">   6564.54007760 </i>
    <i name="e_fr_energy">   -356.31977465 </i>
    <i name="e_wo_entrp">   -356.29678102 </i>
    <i name="e_0_energy">   -356.30827783 </i>
   </energy>
  </scstep>
  <scstep>
   <time name="diag">    0.16    0.16</time>
   <time name="diis">    0.42    0.42</time>
   <time name="orth">    0.04    0.04</time>
   <time name="total">    0.70    0.70</time>
   <energy>
    <i name="e_fr_energy">   -356.32847901 </i>
    <i name="e_wo_entrp">   -356.30550218 </i>
    <i name="e_0_energy">   -356.31699059 </i>
   </energy>
  </scstep>
  <scstep>
   <time name="diag">    0.16    0.16</time>
   <time name="diis">    0.42    0.42</time>
   <time name="orth">    0.04    0.04</time>
   <time name="total">    0.69    0.70</time>
   <energy>
    <i name="e_fr_energy">   -356.32436124 </i>
    <i name="e_wo_entrp">   -356.30124244 </i>
    <i name="e_0_energy">   -356.31280184 </i>
   </energy>
  </scstep>
  <scstep>
   <time name="diag">    0.16    0.16</time>
   <time name="diis">    0.42    0.42</time>
   <time name="orth">    0.04    0.04</time>
   <time name="total">    0.70    0.70</time>
   <energy>
    <i name="e_fr_energy">   -356.32373159 </i>
    <i name="e_wo_entrp">   -356.30055591 </i>
    <i name="e_0_energy">   -356.31214375 </i>
   </energy>
  </scstep>
  <scstep>
   <time name="diag">    0.17    0.17</time>
   <time name="diis">    0.42    0.42</time>
   <time name="orth">    0.04    0.04</time>
   <time name="total">    0.71    0.71</time>
   <energy>
    <i name="e_fr_energy">   -356.32359088 </i>
    <i name="e_wo_entrp">   -356.30049706 </i>
    <i name="e_0_energy">   -356.31204397 </i>
   </energy>
  </scstep>
  <scstep>
   <time name="diag">    0.16    0.16</time>
   <time name="diis">    0.42    0.42</time>
   <time name="orth">    0.04    0.04</time>
   <time name="total">    0.70    0.70</time>
   <energy>
    <i name="e_fr_energy">   -356.32358467 </i>
    <i name="e_wo_entrp">   -356.30049867 </i>
    <i name="e_0_energy">   -356.31204167 </i>
   </energy>
  </scstep>
  <scstep>
   <time name="diag">    0.16    0.16</time>
   <time name="diis">    0.38    0.38</time>
   <time name="orth">    0.04    0.04</time>
   <time name="total">    0.61    0.61</time>
   <energy>
    <i name="alphaZ">    107.59920118 </i>
    <i name="ewald">  -7310.46464223 </i>
    <i name="hartreedc">   -478.74736583 </i>
    <i name="XCdc">   -538.03461922 </i>
    <i name="pawpsdc">  33333.46666655 </i>
    <i name="pawaedc"> -32234.40283455 </i>
    <i name="eentropy">     -0.02310067 </i>
    <i name="bandstr">    199.74303253 </i>
    <i name="atom">   6564.54007760 </i>
    <i name="e_fr_energy">   -356.32358464 </i>
    <i name="e_wo_entrp">   -356.30048397 </i>
    <i name="e_0_energy">   -356.31203431 </i>
   </energy>
  </scstep>
  <structure>
   <crystal>
    <varray name="basis" >
     <v>      10.86180000       0.00000000       0.00000000 </v>
     <v>       0.00000000      10.86180000       0.00000000 </v>
     <v>       0.00000000       0.00000000      10.86180000 </v>
    </varray>
    <i name="volume">   1281.46103541 </i>
    <varray name="rec_basis" >
     <v>       0.09206577       0.00000000       0.00000000 </v>
     <v>       0.00000000       0.09206577       0.00000000 </v>
     <v>       0.00000000       0.00000000       0.09206577 </v>
    </varray>
   </crystal>
   <varray name="positions" >
    <v>       0.01005777       0.00335679       0.00091943 </v>
    <v>       0.51156013       0.98393895       0.99548753 </v>
    <v>       0.98965001       0.50089807       0.00170448 </v>
    <v>       0.49397427       0.49937879       0.99974528 </v>
    <v>       0.00327616       0.98785308       0.49312937 </v>
    <v>       0.48835201       0.01997952       0.51410054 </v>
    <v>       0.01009096       0.48135695       0.51471754 </v>
    <v>       0.50196381       0.51403046       0.49771218 </v>
    <v>       0.36974792       0.13038324       0.37443594 </v>
    <v>       0.87564795       0.12256203       0.37027152 </v>
    <v>       0.38249587       0.62751253       0.36233721 </v>
    <v>       0.88189960       0.60524303       0.38778416 </v>
    <v>       0.37358998       0.12732424       0.88014866 </v>
    <v>       0.88309200       0.13310853       0.88483683 </v>
    <v>       0.37030009       0.61824541       0.87520406 </v>
    <v>       0.86866698       0.62709774       0.87277058 </v>
    <v>       0.00474116       0.24648139       0.23432091 </v>
    <v>       0.50232177       0.24893663       0.24639680 </v>
    <v>       0.98949557       0.73631897       0.25308045 </v>
    <v>       0.50964814       0.75098326       0.24895266 </v>
    <v>       0.99859719       0.24636926       0.74856157 </v>
    <v>       0.50281805       0.23668349       0.75467433 </v>
    <v>       0.99169080       0.75555229       0.74088305 </v>
    <v>       0.49266581       0.74833479       0.74825774 </v>
    <v>       0.37597581       0.37389395       0.12300497 </v>
    <v>       0.87246060       0.37416734       0.12073515 </v>
    <v>       0.38075197       0.87723596       0.12737313 </v>
    <v>       0.87476475       0.88627706       0.13276858 </v>
    <v>       0.37867261       0.37557533       0.61893693 </v>
    <v>       0.86607763       0.37710632       0.63235642 </v>
    <v>       0.36898783       0.88069539       0.64100220 </v>
    <v>       0.86324569       0.88226499       0.61403412 </v>
    <v>       0.25491812       0.00011223       0.25379867 </v>
    <v>       0.74111357       0.00662616       0.26228617 </v>
    <v>       0.24742972       0.50542035       0.24520695 </v>
    <v>       0.74187632       0.49434453       0.24175478 </v>
    <v>       0.24136854       0.00088552       0.75639218 </v>
    <v>       0.74769513       0.00887504       0.74881191 </v>
    <v>       0.25649415       0.50720626       0.74932607 </v>
    <v>       0.75521325       0.50534414       0.75603386 </v>
    <v>       0.13477751       0.12404459       0.12185127 </v>
    <v>       0.61949536       0.12518096       0.12629857 </v>
    <v>       0.11712039       0.62618319       0.11888145 </v>
    <v>       0.62967269       0.62743135       0.12695766 </v>
    <v>       0.11389987       0.12154057       0.61469736 </v>
    <v>       0.62469938       0.13533404       0.61180247 </v>
    <v>       0.13224697       0.62602769       0.62269712 </v>
    <v>       0.62862013       0.62648951       0.63200693 </v>
    <v>       0.25147432       0.25529050       0.00541853 </v>
    <v>       0.74643246       0.24719651       0.00327758 </v>
    <v>       0.25134025       0.74231940       0.00281990 </v>
    <v>       0.76126003       0.76005805       0.00949457 </v>
    <v>       0.25048862       0.24938284       0.49892037 </v>
    <v>       0.76139020       0.24996671       0.49553292 </v>
    <v>       0.26327775       0.74840468       0.50013993 </v>
    <v>       0.75241336       0.74863999       0.49270589 </v>
    <v>       0.12640837       0.36931083       0.37153769 </v>
    <v>       0.61683379       0.38430551       0.38056700 </v>
    <v>       0.12731480       0.86035582       0.37034492 </v>
    <v>       0.61246489       0.87537026       0.38214645 </v>
    <v>       0.12928805       0.37724968       0.86850036 </v>
    <v>       0.61658367       0.37784678       0.87435178 </v>
    <v>       0.12509157       0.87228477       0.87965100 </v>
    <v>       0.63401585       0.86182571       0.86514338 </v>
   </varray>
  </structure>
  <varray name="forces" >
   <v>      -0.78940116      -0.42087558       0.43739641 </v>
   <v>      -0.69661651       1.22392387      -0.17410488 </v>
   <v>       1.02326728      -0.16384349      -1.34536372 </v>
   <v>       0.84183312       0.47052060       0.36673229 </v>
   <v>      -0.46972595       0.46695036      -0.53277507 </v>
   <v>      -0.30950845      -2.30474321      -1.03296058 </v>
   <v>      -0.10738259       0.85625517      -0.58970344 </v>
   <v>      -0.38281504      -0.65108975       0.71945057 </v>
   <v>       0.71567955      -0.08922161      -0.18027029 </v>
   <v>       1.46156291       0.26507176       0.08112589 </v>
   <v>      -0.52207051       0.00856539       0.64846620 </v>
   <v>      -0.80262259       0.16135594      -0.82065557 </v>
   <v>       0.18116391      -1.30063510       0.29923548 </v>
   <v>      -0.75984284      -0.97840737      -0.65644204 </v>
   <v>       0.94010079       1.21807547       0.58328928 </v>
   <v>       1.39264309       1.12249192       1.01358896 </v>
   <v>      -0.65508994       0.17794469       1.19869212 </v>
   <v>      -0.76164943       0.67461840       0.91784533 </v>
   <v>       0.39141471       0.68786013      -0.07415699 </v>
   <v>      -0.69020920       0.26881542      -0.42446040 </v>
   <v>       0.09720007       0.65392233      -0.15720040 </v>
   <v>      -0.38534194       1.74729490      -0.97224772 </v>
   <v>       0.48379767      -0.19698004       0.20748560 </v>
   <v>       0.61197969      -0.50783995       0.57804422 </v>
   <v>      -0.06573006       0.56693923       0.91381185 </v>
   <v>      -0.31148794      -0.34226835       0.35849306 </v>
   <v>      -0.21613791      -0.65070323      -0.30852388 </v>
   <v>       0.51125682       0.17463056       0.71284522 </v>
   <v>       0.25923605       0.15205171       0.81922463 </v>
   <v>       0.93942198      -0.81415707       0.05946113 </v>
   <v>       0.23296840       0.25685221      -1.30045337 </v>
   <v>       0.60947526      -0.13109798       0.83451538 </v>
   <v>      -0.56005757      -0.52521600      -0.19699727 </v>
   <v>      -0.49762620      -0.72511656      -0.81565429 </v>
   <v>      -0.10767472      -0.44326837       0.14039926 </v>
   <v>       1.01047320       0.05878228       1.59372161 </v>
   <v>      -0.35636687       1.00340490       0.04688371 </v>
   <v>       0.19682623       0.07494557      -0.11747244 </v>
   <v>      -0.79949930      -1.47792234      -0.90537618 </v>
   <v>      -1.89244016      -0.82778853      -0.13852194 </v>
   <v>       0.16483356      -0.34461503       0.27969530 </v>
   <v>       0.62250398      -0.98318433      -0.53581538 </v>
   <v>       0.03268132      -0.35457474       0.51476231 </v>
   <v>      -0.13976799       0.21469756      -1.23794818 </v>
   <v>       1.03248769      -0.00843308       0.76404909 </v>
   <v>       1.11519770      -0.03137138       1.65866877 </v>
   <v>      -0.49372685       0.27864449       0.16458188 </v>
   <v>      -0.03145253       0.52026896      -0.82620450 </v>
   <v>       0.00631350      -0.04130193      -1.18181587 </v>
   <v>      -0.27491912       0.60443476      -0.38013099 </v>
   <v>       0.11939991       0.98461643      -0.00163244 </v>
   <v>      -0.75065522      -0.93470429      -1.02070757 </v>
   <v>      -0.54823515       0.25929477       0.27267456 </v>
   <v>      -1.04088896       1.09557396      -0.23925962 </v>
   <v>      -0.31731476       0.15378572      -0.23193001 </v>
   <v>      -0.57001464      -0.49960711       0.40772751 </v>
   <v>      -0.01345793       0.06507197      -0.35953848 </v>
   <v>       1.12190422      -1.42047666      -0.89629068 </v>
   <v>       0.21659662       0.26021224      -0.03815146 </v>
   <v>       0.52919706       0.84252828       0.67509205 </v>
   <v>      -0.60047991      -0.06169082       0.54898365 </v>
   <v>       0.95732680      -0.60124778       0.04982309 </v>
   <v>      -0.45630953      -0.68391814      -0.46861191 </v>
   <v>      -0.06521298       0.71651985       0.39331866 </v>
  </varray>
  <varray name="stress" >
   <v>      10.99559019       4.07151619      -1.63542013 </v>
   <v>       4.07151652      10.78086996       8.13328617 </v>
   <v>      -1.63542037       8.13328609      10.46442198 </v>
  </varray>
  <energy>
   <i name="e_fr_energy">   -356.32358464 </i>
   <i name="e_wo_entrp">   -356.31203431 </i>
   <i name="e_0_energy">     -0.02310067 </i>
   <i name="kinetic">      3.45782110 </i>
   <i name="lattice kinetic">      0.00000000 </i>
   <i name="nosepot">     -0.00950539 </i>
   <i name="nosekinetic">      0.00257094 </i>
   <i name="total">   -352.87269798 </i>
  </energy>
  <time name="totalsc">    5.97    5.98</time>
 </calculation>
 <calculation>
  <scstep>
   <time name="diag">    0.16    0.16</time>
   <time name="diis">    0.42    0.42</time>
   <time name="orth">    0.04    0.04</time>
   <time name="total">    0.70    0.70</time>
   <energy>
    <i name="alphaZ">    107.59920118 </i>
    <i name="ewald">  -7310.77656193 </i>
    <i name="hartreedc">   -478.63872524 </i>
    <i name="XCdc">   -538.07851669 </i>
    <i name="pawpsdc">  33290.15170722 </i>
    <i name="pawaedc"> -32191.07234613 </i>
    <i name="eentropy">     -0.01987252 </i>
    <i name="bandstr">    200.09549672 </i>
    <i name="atom">   6564.54007760 </i>
    <i name="e_fr_energy">   -356.19953979 </i>
    <i name="e_wo_entrp">   -356.17966727 </i>
    <i name="e_0_energy">   -356.18960353 </i>
   </energy>
  </scstep>
  <scstep>
   <time name="diag">    0.16    0.16</time>
   <time name="diis">    0.42    0.42</time>
   <time name="orth">    0.04    0.04</time>
   <time name="total">    0.70    0.70</time>
   <energy>
    <i name="e_fr_energy">   -356.19996853 </i>
    <i name="e_wo_entrp">   -356.18009317 </i>
    <i name="e_0_energy">   -356.19003085 </i>
   </energy>
  </scstep>
  <scstep>
   <time name="diag">    0.16    0.16</time>
   <time name="diis">    0.42    0.42</time>
   <time name="orth">    0.04    0.04</time>
   <time name="total">    0.70    0.70</time>
   <energy>
    <i name="e_fr_energy">   -356.19977525 </i>
    <i name="e_wo_entrp">   -356.17977457 </i>
    <i name="e_0_energy">   -356.18977491 </i>
   </energy>
  </scstep>
  <scstep>
   <time name="diag">    0.16    0.16</time>
   <time name="diis">    0.42    0.42</time>
   <time name="orth">    0.04    0.04</time>
   <time name="total">    0.70    0.70</time>
   <energy>
    <i name="e_fr_energy">   -356.19974113 </i>
    <i name="e_wo_entrp">   -356.17963988 </i>
    <i name="e_0_energy">   -356.18969050 </i>
   </energy>
  </scstep>
  <scstep>
   <time name="diag">    0.16    0.16</time>
   <time name="diis">    0.42    0.42</time>
   <time name="orth">    0.04    0.04</time>
   <time name="total">    0.70    0.70</time>
   <energy>
    <i name="e_fr_energy">   -356.19974134 </i>
    <i name="e_wo_entrp">   -356.17963775 </i>
    <i name="e_0_energy">   -356.18968954 </i>
   </energy>
  </scstep>
  <scstep>
   <time name="diag">    0.16    0.16</time>
   <time name="diis">    0.35    0.35</time>
   <time name="orth">    0.04    0.04</time>
   <time name="total">    0.58    0.58</time>
   <energy>
    <i name="alphaZ">    107.59920118 </i>
    <i name="ewald">  -7310.77656193 </i>
    <i name="hartreedc">   -478.52283180 </i>
    <i name="XCdc">   -538.09426511 </i>
    <i name="pawpsdc">  33279.98485036 </i>
    <i name="pawaedc"> -32180.90372823 </i>
    <i name="eentropy">     -0.02008864 </i>
    <i name="bandstr">    199.99360610 </i>
    <i name="atom">   6564.54007760 </i>
    <i name="e_fr_energy">   -356.19974047 </i>
    <i name="e_wo_entrp">   -356.17965183 </i>
    <i name="e_0_energy">   -356.18969615 </i>
   </energy>
  </scstep>
  <structure>
   <crystal>
    <varray name="basis" >
     <v>      10.86180000       0.00000000       0.00000000 </v>
     <v>       0.00000000      10.86180000       0.00000000 </v>
     <v>       0.00000000       0.00000000      10.86180000 </v>
    </varray>
    <i name="volume">   1281.46103541 </i>
    <varray name="rec_basis" >
     <v>       0.09206577       0.00000000       0.00000000 </v>
     <v>       0.00000000       0.09206577       0.00000000 </v>
     <v>       0.00000000       0.00000000       0.09206577 </v>
    </varray>
   </crystal>
   <varray name="positions" >
    <v>       0.01075599       0.00352830       0.00241446 </v>
    <v>       0.51256494       0.98469661       0.99468757 </v>
    <v>       0.98839259       0.49937874       0.00139981 </v>
    <v>       0.49402038       0.49893918       0.99996555 </v>
    <v>       0.00351356       0.98588918       0.49133788 </v>
    <v>       0.48753662       0.02170437       0.51377638 </v>
    <v>       0.01027960       0.48000120       0.51464474 </v>
    <v>       0.50149492       0.51334501       0.49601332 </v>
    <v>       0.37046749       0.13047083       0.37517266 </v>
    <v>       0.87629456       0.12214292       0.37005261 </v>
    <v>       0.38302078       0.62645168       0.36205793 </v>
    <v>       0.88119302       0.60371240       0.39014495 </v>
    <v>       0.37474813       0.12702569       0.88002277 </v>
    <v>       0.88124596       0.13324871       0.88575281 </v>
    <v>       0.36968585       0.61779243       0.87489922 </v>
    <v>       0.86823581       0.62812360       0.87319863 </v>
    <v>       0.00525194       0.24765809       0.23364307 </v>
    <v>       0.50342851       0.24963096       0.24781635 </v>
    <v>       0.98824048       0.73547971       0.25392821 </v>
    <v>       0.51052083       0.75033723       0.24871519 </v>
    <v>       0.99930291       0.24686264       0.74816638 </v>
    <v>       0.50294811       0.23628849       0.75463188 </v>
    <v>       0.99158728       0.75683783       0.73968155 </v>
    <v>       0.49279651       0.74873741       0.74903925 </v>
    <v>       0.37509978       0.37531505       0.12414518 </v>
    <v>       0.87142231       0.37413782       0.12024331 </v>
    <v>       0.38129880       0.87685282       0.12668953 </v>
    <v>       0.87465655       0.88797206       0.13510147 </v>
    <v>       0.37958172       0.37633651       0.61892648 </v>
    <v>       0.86576994       0.37771354       0.63340483 </v>
    <v>       0.36843558       0.88123363       0.64342929 </v>
    <v>       0.86236151       0.88329590       0.61431658 </v>
    <v>       0.25487029       0.99828640       0.25506022 </v>
    <v>       0.73971779       0.00507994       0.26303865 </v>
    <v>       0.24860354       0.50476401       0.24548155 </v>
    <v>       0.74145915       0.49428654       0.24224423 </v>
    <v>       0.24022508       0.99975695       0.75869810 </v>
    <v>       0.74844211       0.00828874       0.74957031 </v>
    <v>       0.25720513       0.50664319       0.74953392 </v>
    <v>       0.75433144       0.50523399       0.75719250 </v>
    <v>       0.13550015       0.12405091       0.11985059 </v>
    <v>       0.61863184       0.12633513       0.12484135 </v>
    <v>       0.11572527       0.62701597       0.12051859 </v>
    <v>       0.63129566       0.62840610       0.12746544 </v>
    <v>       0.11429232       0.12165030       0.61470309 </v>
    <v>       0.62487517       0.13819569       0.61186308 </v>
    <v>       0.13252100       0.62604763       0.62319044 </v>
    <v>       0.62849738       0.62703413       0.63161873 </v>
    <v>       0.25225488       0.25638300       0.00425146 </v>
    <v>       0.74545843       0.24724874       0.00318736 </v>
    <v>       0.25076793       0.74279651       0.00164346 </v>
    <v>       0.76109080       0.76135950       0.00975127 </v>
    <v>       0.25109377       0.24916872       0.49777262 </v>
    <v>       0.76035258       0.25101334       0.49504602 </v>
    <v>       0.26322163       0.74718180       0.49911430 </v>
    <v>       0.75325191       0.74788670       0.49196314 </v>
    <v>       0.12698645       0.36836782       0.37098536 </v>
    <v>       0.61614358       0.38339919       0.37924826 </v>
    <v>       0.12725615       0.85820485       0.36821410 </v>
    <v>       0.61235795       0.87580485       0.38162002 </v>
    <v>       0.13060431       0.37688417       0.86847825 </v>
    <v>       0.61619261       0.37635376       0.87343864 </v>
    <v>       0.12484724       0.87279055       0.87870402 </v>
    <v>       0.63577352       0.86294033       0.86429110 </v>
   </varray>
  </structure>
  <varray name="forces" >
   <v>      -0.98303761      -0.49132064       0.18195862 </v>
   <v>      -0.74355816       1.12253331      -0.13827625 </v>
   <v>       1.21694444       0.10300677      -1.28761104 </v>
   <v>       0.91588418       0.53414261       0.30851095 </v>
   <v>      -0.38182309       0.67412053      -0.32765962 </v>
   <v>      -0.04785881      -2.39600930      -0.65784867 </v>
   <v>      -0.01414673       0.91736642      -0.43743582 </v>
   <v>      -0.20222028      -0.60650561       0.97320824 </v>
   <v>       0.58464779      -0.16440694      -0.48920420 </v>
   <v>       1.26371322       0.28397533       0.02818902 </v>
   <v>      -0.56138988       0.12532185       0.57387006 </v>
   <v>      -0.69266416       0.16949928      -1.04292119 </v>
   <v>       0.06330889      -1.31765291       0.34193628 </v>
   <v>      -0.34606731      -1.00453553      -0.79804413 </v>
   <v>       1.10990344       1.29735870       0.74794879 </v>
   <v>       1.40739893       1.06358670       0.93107317 </v>
   <v>      -0.66755832      -0.03256895       1.09497647 </v>
   <v>      -0.96796539       0.55701745       0.61516514 </v>
   <v>       0.18849298       0.62564929       0.00484179 </v>
   <v>      -0.81433477       0.36466398      -0.36457687 </v>
   <v>      -0.06073869       0.51703666       0.01281021 </v>
   <v>      -0.45884238       1.79719806      -0.99620908 </v>
   <v>       0.41986928      -0.28575382       0.33179763 </v>
   <v>       0.63564481      -0.53408408       0.56043148 </v>
   <v>       0.12271302       0.35845851       0.83247951 </v>
   <v>      -0.32597231      -0.38462159       0.48461178 </v>
   <v>      -0.21006075      -0.61446342      -0.27961865 </v>
   <v>       0.49130041      -0.09477238       0.50295767 </v>
   <v>       0.13656339       0.02342729       0.72852494 </v>
   <v>       0.91636084      -0.82648777       0.00776552 </v>
   <v>       0.20701733       0.20636961      -1.57343034 </v>
   <v>       0.67536383      -0.23559690       0.63727604 </v>
   <v>      -0.47221127      -0.25371075      -0.42610141 </v>
   <v>      -0.37692691      -0.23917530      -0.89535560 </v>
   <v>      -0.40250802      -0.25802554       0.16408169 </v>
   <v>       1.09088033       0.04005779       1.54439641 </v>
   <v>      -0.17142968       1.33062057      -0.20885813 </v>
   <v>       0.12411717       0.40841866      -0.25652713 </v>
   <v>      -0.90091080      -1.45611923      -1.01967179 </v>
   <v>      -1.87113364      -0.68914345      -0.19964077 </v>
   <v>       0.33028373      -0.22101613       0.66580599 </v>
   <v>       0.65168134      -1.10004154      -0.25093331 </v>
   <v>       0.17899747      -0.55287103       0.21548499 </v>
   <v>      -0.25545708       0.13826832      -1.34989628 </v>
   <v>       0.96464735      -0.18539588       0.61080765 </v>
   <v>       1.01262100      -0.47532247       1.57196125 </v>
   <v>      -0.52166978       0.17917331       0.06901272 </v>
   <v>      -0.07896438       0.39944563      -0.85727314 </v>
   <v>       0.09267265      -0.12772365      -1.07468758 </v>
   <v>      -0.28817993       0.69917514      -0.40933054 </v>
   <v>      -0.00536616       0.85927315       0.13612170 </v>
   <v>      -0.56920645      -0.86254356      -0.94207480 </v>
   <v>      -0.52550279       0.28430228       0.44275012 </v>
   <v>      -0.73534057       1.10065704      -0.29411560 </v>
   <v>      -0.27706611       0.27420161      -0.04165786 </v>
   <v>      -0.71413715      -0.27279346       0.56879344 </v>
   <v>      -0.05205507       0.19101326      -0.33181970 </v>
   <v>       1.21423297      -1.27678550      -0.72402612 </v>
   <v>       0.22380690       0.26403441       0.13622765 </v>
   <v>       0.43131319       0.68197189       0.83828689 </v>
   <v>      -0.76515057      -0.01997484       0.46332902 </v>
   <v>       0.90040135      -0.39484266       0.20462357 </v>
   <v>      -0.69366789      -0.84460905      -0.16549941 </v>
   <v>      -0.24069801       0.49503454       0.45658409 </v>
  </varray>
  <varray name="stress" >
   <v>      10.55746920       3.57039407      -3.34010094 </v>
   <v>       3.57039401      10.69370501       7.76883088 </v>
   <v>      -3.34010095       7.76883070      10.11912291 </v>
  </varray>
  <energy>
   <i name="e_fr_energy">   -356.19974047 </i>
   <i name="e_wo_entrp">   -356.18969615 </i>
   <i name="e_0_energy">     -0.02008864 </i>
   <i name="kinetic">      3.35301293 </i>
   <i name="lattice kinetic">      0.00000000 </i>
   <i name="nosepot">     -0.03902925 </i>
   <i name="nosekinetic">      0.01140288 </i>
   <i name="total">   -352.87435390 </i>
  </energy>
  <time name="totalsc">    5.25    5.26</time>
 </calculation>
 <calculation>
  <scstep>
   <time name="diag">    0.16    0.16</time>
   <time name="diis">    0.42    0.42</time>
   <time name="orth">    0.04    0.04</time>
   <time name="total">    0.70    0.70</time>
   <energy>
    <i name="alphaZ">    107.59920118 </i>
    <i name="ewald">  -7310.92374276 </i>
    <i name="hartreedc">   -478.50414956 </i>
    <i name="XCdc">   -538.15003406 </i>
    <i name="pawpsdc">  33224.88134220 </i>
    <i name="pawaedc"> -32125.78286753 </i>
    <i name="eentropy">     -0.01679369 </i>
    <i name="bandstr">    200.23084247 </i>
    <i name="atom">   6564.54007760 </i>
    <i name="e_fr_energy">   -356.12612415 </i>
    <i name="e_wo_entrp">   -356.10933046 </i>
    <i name="e_0_energy">   -356.11772731 </i>
   </energy>
  </scstep>
  <scstep>
   <time name="diag">    0.16    0.16</time>
   <time name="diis">    0.43    0.43</time>
   <time name="orth">    0.04    0.04</time>
   <time name="total">    0.70    0.70</time>
   <energy>
    <i name="e_fr_energy">   -356.12613335 </i>
    <i name="e_wo_entrp">   -356.10941207 </i>
    <i name="e_0_energy">   -356.11777271 </i>
   </energy>
  </scstep>
  <scstep>
   <time name="diag">    0.16    0.16</time>
   <time name="diis">    0.42    0.42</time>
   <time name="orth">    0.04    0.04</time>
   <time name="total">    0.70    0.70</time>
   <energy>
    <i name="e_fr_energy">   -356.12612564 </i>
    <i name="e_wo_entrp">   -356.10946709 </i>
    <i name="e_0_energy">   -356.11779637 </i>
   </energy>
  </scstep>
  <scstep>
   <time name="diag">    0.16    0.16</time>
   <time name="diis">    0.32    0.33</time>
   <time name="orth">    0.04    0.04</time>
   <time name="total">    0.56    0.56</time>
   <energy>
    <i name="alphaZ">    107.59920118 </i>
    <i name="ewald">  -7310.92374276 </i>
    <i name="hartreedc">   -478.45365619 </i>
    <i name="XCdc">   -538.15570668 </i>
    <i name="pawpsdc">  33218.51142573 </i>
    <i name="pawaedc"> -32119.41051460 </i>
    <i name="eentropy">     -0.01665691 </i>
    <i name="bandstr">    200.18344694 </i>
    <i name="atom">   6564.54007760 </i>
    <i name="e_fr_energy">   -356.12612569 </i>
    <i name="e_wo_entrp">   -356.10946878 </i>
    <i name="e_0_energy">   -356.11779723 </i>
   </energy>
  </scstep>
  <structure>
   <crystal>
    <varray name="basis" >
     <v>      10.86180000       0.00000000       0.00000000 </v>
     <v>       0.00000000      10.86180000       0.00000000 </v>
     <v>       0.00000000       0.00000000      10.86180000 </v>
    </varray>
    <i name="volume">   1281.46103541 </i>
    <varray name="rec_basis" >
     <v>       0.09206577       0.00000000       0.00000000 </v>
     <v>       0.00000000       0.09206577       0.00000000 </v>
     <v>       0.00000000       0.00000000       0.09206577 </v>
    </varray>
   </crystal>
   <varray name="positions" >
    <v>       0.01117589       0.00356096       0.00396688 </v>
    <v>       0.51336100       0.98577817       0.99384422 </v>
    <v>       0.98747636       0.49788314       0.00072595 </v>
    <v>       0.49432714       0.49865072       0.00027406 </v>
    <v>       0.00364224       0.98411009       0.48944492 </v>
    <v>       0.48670345       0.02275345       0.51326257 </v>
    <v>       0.01046421       0.47890214       0.51444621 </v>
    <v>       0.50096564       0.51248433       0.49458443 </v>
    <v>       0.37135601       0.13051248       0.37577221 </v>
    <v>       0.87730351       0.12180369       0.36984018 </v>
    <v>       0.38338693       0.62542281       0.36194052 </v>
    <v>       0.88028518       0.60222442       0.39221728 </v>
    <v>       0.37592832       0.12635064       0.87999324 </v>
    <v>       0.87929284       0.13310352       0.88644425 </v>
    <v>       0.36938489       0.61770825       0.87480583 </v>
    <v>       0.86820354       0.62945765       0.87389336 </v>
    <v>       0.00557362       0.24883092       0.23327413 </v>
    <v>       0.50426292       0.25048762       0.24941655 </v>
    <v>       0.98703322       0.73481607       0.25478018 </v>
    <v>       0.51116404       0.74979316       0.24837209 </v>
    <v>       0.99999341       0.24750610       0.74777257 </v>
    <v>       0.50294705       0.23640511       0.75430443 </v>
    <v>       0.99160233       0.75804774       0.73856909 </v>
    <v>       0.49310828       0.74898993       0.74998316 </v>
    <v>       0.37425437       0.37684481       0.12552688 </v>
    <v>       0.87028599       0.37399907       0.11988703 </v>
    <v>       0.38178716       0.87629343       0.12592269 </v>
    <v>       0.87468726       0.88964757       0.13758675 </v>
    <v>       0.38053273       0.37710808       0.61912313 </v>
    <v>       0.86572159       0.37808808       0.63445909 </v>
    <v>       0.36793932       0.88183354       0.64541686 </v>
    <v>       0.86166555       0.88426444       0.61478131 </v>
    <v>       0.25468678       0.99638128       0.25620473 </v>
    <v>       0.73820799       0.00345974       0.26353816 </v>
    <v>       0.24966659       0.50403196       0.24580342 </v>
    <v>       0.74135066       0.49424033       0.24317557 </v>
    <v>       0.23902724       0.99900388       0.76095325 </v>
    <v>       0.74922678       0.00781712       0.75025799 </v>
    <v>       0.25766127       0.50566305       0.74945112 </v>
    <v>       0.75291151       0.50492740       0.75829829 </v>
    <v>       0.13631919       0.12399480       0.11803095 </v>
    <v>       0.61794988       0.12718084       0.12330590 </v>
    <v>       0.11437470       0.62769506       0.12222325 </v>
    <v>       0.63285165       0.62942487       0.12758960 </v>
    <v>       0.11496075       0.12170819       0.61488241 </v>
    <v>       0.62533975       0.14093410       0.61237166 </v>
    <v>       0.13264656       0.62611934       0.62370481 </v>
    <v>       0.62835083       0.62769551       0.63098374 </v>
    <v>       0.25306430       0.25744413       0.00277239 </v>
    <v>       0.74439743       0.24750122       0.00297935 </v>
    <v>       0.25019094       0.74352128       0.00050036 </v>
    <v>       0.76075773       0.76242084       0.00973964 </v>
    <v>       0.25155073       0.24903540       0.49674578 </v>
    <v>       0.75910016       0.25237882       0.49447258 </v>
    <v>       0.26308547       0.74603271       0.49807192 </v>
    <v>       0.75388941       0.74705310       0.49137892 </v>
    <v>       0.12755127       0.36747602       0.37033544 </v>
    <v>       0.61579610       0.38212555       0.37771693 </v>
    <v>       0.12726032       0.85612095       0.36611272 </v>
    <v>       0.61237282       0.87643636       0.38132989 </v>
    <v>       0.13170695       0.37651205       0.86858756 </v>
    <v>       0.61605601       0.37474258       0.87257945 </v>
    <v>       0.12440325       0.87305807       0.87770529 </v>
    <v>       0.63746896       0.86420132       0.86356490 </v>
   </varray>
  </structure>
  <varray name="forces" >
   <v>      -1.09357625      -0.47556890      -0.03827957 </v>
   <v>      -0.79865214       0.95745563      -0.12289887 </v>
[...]
       <r>    -3.0999     0.0000    46.0000 </r>
       <r>    -3.0434     0.0000    46.0000 </r>
       <r>    -2.9869     0.0000    46.0000 </r>
       <r>    -2.9304     0.0000    46.0000 </r>
       <r>    -2.8739     0.0000    46.0000 </r>
       <r>    -2.8174     0.0000    46.0000 </r>
       <r>    -2.7610     0.0000    46.0000 </r>
       <r>    -2.7045     0.0000    46.0000 </r>
       <r>    -2.6480     0.0000    46.0000 </r>
       <r>    -2.5915     0.0000    46.0000 </r>
       <r>    -2.5350     0.0001    46.0000 </r>
       <r>    -2.4785     0.0043    46.0003 </r>
       <r>    -2.4220     0.0729    46.0044 </r>
       <r>    -2.3656     0.6811    46.0428 </r>
       <r>    -2.3091     3.6548    46.2493 </r>
       <r>    -2.2526    11.7952    46.9155 </r>
       <r>    -2.1961    24.3776    48.2925 </r>
       <r>    -2.1396    35.3783    50.2909 </r>
       <r>    -2.0831    42.3778    52.6846 </r>
       <r>    -2.0266    49.0760    55.4567 </r>
       <r>    -1.9702    54.0973    58.5124 </r>
       <r>    -1.9137    57.4891    61.7597 </r>
       <r>    -1.8572    64.3579    65.3950 </r>
       <r>    -1.8007    67.9556    69.2335 </r>
       <r>    -1.7442    62.0506    72.7385 </r>
       <r>    -1.6877    55.4167    75.8687 </r>
       <r>    -1.6312    49.2398    78.6501 </r>
       <r>    -1.5748    35.2306    80.6401 </r>
       <r>    -1.5183    17.4017    81.6230 </r>
       <r>    -1.4618     5.9526    81.9593 </r>
       <r>    -1.4053     3.4391    82.1535 </r>
       <r>    -1.3488     7.1266    82.5561 </r>
       <r>    -1.2923    12.2604    83.2486 </r>
       <r>    -1.2359    15.7400    84.1377 </r>
       <r>    -1.1794    20.8224    85.3139 </r>
       <r>    -1.1229    26.9841    86.8381 </r>
       <r>    -1.0664    26.6571    88.3438 </r>
       <r>    -1.0099    18.2864    89.3767 </r>
       <r>    -0.9534     8.2881    89.8449 </r>
       <r>    -0.8969     2.3268    89.9763 </r>
       <r>    -0.8405     0.3819    89.9979 </r>
       <r>    -0.7840     0.0353    89.9999 </r>
       <r>    -0.7275     0.0018    90.0000 </r>
       <r>    -0.6710     0.0000    90.0000 </r>
       <r>    -0.6145     0.0000    90.0000 </r>
       <r>    -0.5580     0.0000    90.0000 </r>
       <r>    -0.5015     0.0000    90.0000 </r>
       <r>    -0.4451     0.0000    90.0000 </r>
       <r>    -0.3886     0.0000    90.0000 </r>
       <r>    -0.3321     0.0000    90.0000 </r>
       <r>    -0.2756     0.0000    90.0000 </r>
       <r>    -0.2191     0.0000    90.0000 </r>
       <r>    -0.1626     0.0007    90.0000 </r>
       <r>    -0.1061     0.0170    90.0010 </r>
       <r>    -0.0497     0.2419    90.0147 </r>
       <r>     0.0068     1.9102    90.1226 </r>
       <r>     0.0633     8.5529    90.6057 </r>
       <r>     0.1198    22.6062    91.8826 </r>
       <r>     0.1763    37.8918    94.0229 </r>
       <r>     0.2328    45.5714    96.5971 </r>
       <r>     0.2893    47.9473    99.3054 </r>
       <r>     0.3457    53.4612   102.3252 </r>
       <r>     0.4022    61.4661   105.7971 </r>
       <r>     0.4587    61.2697   109.2580 </r>
       <r>     0.5152    46.6111   111.8908 </r>
       <r>     0.5717    25.3543   113.3230 </r>
       <r>     0.6282     9.3981   113.8538 </r>
       <r>     0.6847     2.2378   113.9802 </r>
       <r>     0.7411     0.3219   113.9984 </r>
       <r>     0.7976     0.0267   113.9999 </r>
       <r>     0.8541     0.0012   114.0000 </r>
       <r>     0.9106     0.0000   114.0000 </r>
       <r>     0.9671     0.0000   114.0000 </r>
       <r>     1.0236     0.0000   114.0000 </r>
       <r>     1.0801     0.0000   114.0000 </r>
       <r>     1.1365     0.0000   114.0000 </r>
       <r>     1.1930     0.0000   114.0000 </r>
       <r>     1.2495     0.0000   114.0000 </r>
       <r>     1.3060     0.0000   114.0000 </r>
       <r>     1.3625     0.0002   114.0000 </r>
       <r>     1.4190     0.0057   114.0003 </r>
       <r>     1.4755     0.0997   114.0060 </r>
       <r>     1.5319     0.9820   114.0614 </r>
       <r>     1.5884     5.6243   114.3791 </r>
       <r>     1.6449    19.5110   115.4812 </r>
       <r>     1.7014    43.5104   117.9389 </r>
       <r>     1.7579    67.9147   121.7751 </r>
       <r>     1.8144    82.7710   126.4505 </r>
       <r>     1.8709    88.6625   131.4587 </r>
       <r>     1.9273    92.5009   136.6836 </r>
       <r>     1.9838    96.5816   142.1391 </r>
       <r>     2.0403    96.5444   147.5925 </r>
       <r>     2.0968    89.9653   152.6742 </r>
       <r>     2.1533    75.8469   156.9584 </r>
       <r>     2.2098    55.2314   160.0782 </r>
       <r>     2.2663    38.5363   162.2550 </r>
       <r>     2.3227    36.9745   164.3435 </r>
       <r>     2.3792    44.9040   166.8799 </r>
       <r>     2.4357    48.2822   169.6072 </r>
       <r>     2.4922    40.7153   171.9070 </r>
       <r>     2.5487    24.6481   173.2992 </r>
       <r>     2.6052     9.7182   173.8482 </r>
       <r>     2.6617     2.3378   173.9802 </r>
       <r>     2.7181     0.4174   174.0038 </r>
       <r>     2.7746     0.9487   174.0574 </r>
       <r>     2.8311     5.3588   174.3601 </r>
       <r>     2.8876    18.1411   175.3848 </r>
       <r>     2.9441    37.7363   177.5164 </r>
       <r>     3.0006    51.8646   180.4460 </r>
       <r>     3.0571    49.5281   183.2436 </r>
       <r>     3.1135    32.0854   185.0559 </r>
       <r>     3.1700    13.0956   185.7957 </r>
       <r>     3.2265     3.1531   185.9738 </r>
       <r>     3.2830     0.4305   185.9981 </r>
       <r>     3.3395     0.0326   185.9999 </r>
       <r>     3.3960     0.0014   186.0000 </r>
       <r>     3.4525     0.0019   186.0001 </r>
       <r>     3.5089     0.0390   186.0023 </r>
       <r>     3.5654     0.4510   186.0278 </r>
       <r>     3.6219     2.9993   186.1972 </r>
       <r>     3.6784    11.8505   186.8666 </r>
       <r>     3.7349    28.9505   188.5019 </r>
       <r>     3.7914    45.8053   191.0892 </r>
       <r>     3.8479    50.5979   193.9473 </r>
       <r>     3.9043    46.8579   196.5941 </r>
       <r>     3.9608    47.2392   199.2624 </r>
       <r>     4.0173    50.9850   202.1423 </r>
       <r>     4.0738    49.4464   204.9353 </r>
       <r>     4.1303    42.4339   207.3322 </r>
       <r>     4.1868    33.8289   209.2431 </r>
       <r>     4.2432    27.6370   210.8041 </r>
       <r>     4.2997    29.1267   212.4494 </r>
       <r>     4.3562    39.9242   214.7045 </r>
       <r>     4.4127    56.0249   217.8691 </r>
       <r>     4.4692    67.8833   221.7036 </r>
       <r>     4.5257    69.0065   225.6014 </r>
       <r>     4.5822    63.8496   229.2080 </r>
       <r>     4.6386    60.1122   232.6035 </r>
       <r>     4.6951    58.6901   235.9186 </r>
       <r>     4.7516    57.7580   239.1811 </r>
       <r>     4.8081    56.3472   242.3639 </r>
       <r>     4.8646    49.1823   245.1420 </r>
       <r>     4.9211    36.4487   247.2008 </r>
       <r>     4.9776    24.9019   248.6074 </r>
       <r>     5.0340    15.3370   249.4737 </r>
       <r>     5.0905     6.9788   249.8680 </r>
       <r>     5.1470     1.9828   249.9800 </r>
       <r>     5.2035     0.3240   249.9983 </r>
       <r>     5.2600     0.0294   249.9999 </r>
       <r>     5.3165     0.0015   250.0000 </r>
       <r>     5.3730     0.0001   250.0000 </r>
       <r>     5.4294     0.0011   250.0001 </r>
       <r>     5.4859     0.0231   250.0014 </r>
       <r>     5.5424     0.2638   250.0163 </r>
       <r>     5.5989     1.6371   250.1087 </r>
       <r>     5.6554     5.5354   250.4214 </r>
       <r>     5.7119    10.3227   251.0045 </r>
       <r>     5.7684    11.3633   251.6464 </r>
       <r>     5.8248    10.3073   252.2286 </r>
       <r>     5.8813    12.9329   252.9591 </r>
       <r>     5.9378    17.2361   253.9327 </r>
       <r>     5.9943    17.4658   254.9192 </r>
       <r>     6.0508    12.8608   255.6457 </r>
       <r>     6.1073     8.9498   256.1512 </r>
       <r>     6.1638    11.8409   256.8201 </r>
       <r>     6.2202    19.7766   257.9372 </r>
       <r>     6.2767    26.4414   259.4307 </r>
       <r>     6.3332    29.7192   261.1094 </r>
       <r>     6.3897    30.9803   262.8594 </r>
       <r>     6.4462    28.7592   264.4838 </r>
       <r>     6.5027    21.8099   265.7158 </r>
       <r>     6.5592    16.0482   266.6223 </r>
       <r>     6.6156    14.3350   267.4320 </r>
       <r>     6.6721    15.8222   268.3257 </r>
       <r>     6.7286    25.2971   269.7546 </r>
       <r>     6.7851    40.3816   272.0356 </r>
       <r>     6.8416    48.2008   274.7583 </r>
       <r>     6.8981    42.8219   277.1771 </r>
       <r>     6.9546    29.0761   278.8195 </r>
       <r>     7.0110    14.9132   279.6619 </r>
       <r>     7.0675     7.3062   280.0745 </r>
       <r>     7.1240    11.6211   280.7310 </r>
       <r>     7.1805    27.9449   282.3095 </r>
       <r>     7.2370    41.7890   284.6699 </r>
       <r>     7.2935    35.8140   286.6929 </r>
       <r>     7.3500    17.4852   287.6806 </r>
       <r>     7.4064     4.8355   287.9537 </r>
       <r>     7.4629     0.7514   287.9961 </r>
       <r>     7.5194     0.0650   287.9998 </r>
       <r>     7.5759     0.0034   288.0000 </r>
       <r>     7.6324     0.0085   288.0005 </r>
       <r>     7.6889     0.1232   288.0075 </r>
       <r>     7.7454     1.0079   288.0644 </r>
       <r>     7.8018     4.8007   288.3356 </r>
       <r>     7.8583    14.2200   289.1388 </r>
       <r>     7.9148    28.2996   290.7373 </r>
       <r>     7.9713    40.1936   293.0077 </r>
       <r>     8.0278    44.6489   295.5297 </r>
       <r>     8.0843    48.6236   298.2762 </r>
       <r>     8.1408    57.4432   301.5209 </r>
       <r>     8.1972    61.0351   304.9685 </r>
       <r>     8.2537    56.2437   308.1455 </r>
       <r>     8.3102    50.9720   311.0247 </r>
       <r>     8.3667    45.7137   313.6068 </r>
       <r>     8.4232    37.4090   315.7199 </r>
       <r>     8.4797    25.3573   317.1522 </r>
       <r>     8.5362    13.9713   317.9414 </r>
       <r>     8.5926    10.9847   318.5619 </r>
       <r>     8.6491    15.4002   319.4318 </r>
       <r>     8.7056    18.5515   320.4797 </r>
       <r>     8.7621    15.3848   321.3487 </r>
       <r>     8.8186     8.2761   321.8162 </r>
       <r>     8.8751     2.6959   321.9684 </r>
       <r>     8.9316     0.5035   321.9969 </r>
       <r>     8.9880     0.0522   321.9998 </r>
       <r>     9.0445     0.0030   322.0000 </r>
       <r>     9.1010     0.0001   322.0000 </r>
       <r>     9.1575     0.0000   322.0000 </r>
       <r>     9.2140     0.0000   322.0000 </r>
       <r>     9.2705     0.0000   322.0000 </r>
       <r>     9.3270     0.0000   322.0000 </r>
       <r>     9.3834     0.0000   322.0000 </r>
       <r>     9.4399     0.0000   322.0000 </r>
       <r>     9.4964     0.0000   322.0000 </r>
       <r>     9.5529     0.0000   322.0000 </r>
       <r>     9.6094     0.0000   322.0000 </r>
       <r>     9.6659     0.0000   322.0000 </r>
       <r>     9.7223     0.0000   322.0000 </r>
      </set>
     </set>
    </array>
   </total>
  </dos>
 </calculation>
 <structure name="finalpos" >
  <crystal>
   <varray name="basis" >
    <v>      10.86180000       0.00000000       0.00000000 </v>
    <v>       0.00000000      10.86180000       0.00000000 </v>
    <v>       0.00000000       0.00000000      10.86180000 </v>
   </varray>
   <i name="volume">   1281.46103541 </i>
   <varray name="rec_basis" >
    <v>       0.09206577       0.00000000       0.00000000 </v>
    <v>       0.00000000       0.09206577       0.00000000 </v>
    <v>       0.00000000       0.00000000       0.09206577 </v>
   </varray>
  </crystal>
  <varray name="positions" >
   <v>       0.99082391       0.98630305       0.00939181 </v>
   <v>       0.49454279       0.00810562       0.00466899 </v>
   <v>       0.98986381       0.49168679       0.00408681 </v>
   <v>       0.51094011       0.51179286       0.99007625 </v>
   <v>       0.01079144       0.00505808       0.49903365 </v>
   <v>       0.49614547       0.00232077       0.48948168 </v>
   <v>       0.98225316       0.49605586       0.48039795 </v>
   <v>       0.48982868       0.48945836       0.51696031 </v>
   <v>       0.38748043       0.12666855       0.35589088 </v>
   <v>       0.87741847       0.14112814       0.37504163 </v>
   <v>       0.37097307       0.61576687       0.37536114 </v>
   <v>       0.86525794       0.62707602       0.36383227 </v>
   <v>       0.37862762       0.12720059       0.86621867 </v>
   <v>       0.87188245       0.12719458       0.87049993 </v>
   <v>       0.37763456       0.64369418       0.86414395 </v>
   <v>       0.86530722       0.62128545       0.86754261 </v>
   <v>       0.01538245       0.25636283       0.24567134 </v>
   <v>       0.50705204       0.25655905       0.23816821 </v>
   <v>       0.00014321       0.75057785       0.25572668 </v>
   <v>       0.50938525       0.73886911       0.26879950 </v>
   <v>       0.01173096       0.24940355       0.74309441 </v>
   <v>       0.49973769       0.25994157       0.76175989 </v>
   <v>       0.99747887       0.75081550       0.75024014 </v>
   <v>       0.51023349       0.76873878       0.75145360 </v>
   <v>       0.38547628       0.37695096       0.10388558 </v>
   <v>       0.86617262       0.36632452       0.12833102 </v>
   <v>       0.38583005       0.86500348       0.12730008 </v>
   <v>       0.86491534       0.86336495       0.13559242 </v>
   <v>       0.35844069       0.37705570       0.64225334 </v>
   <v>       0.86933081       0.36944488       0.61018784 </v>
   <v>       0.37281021       0.87307378       0.62587687 </v>
   <v>       0.87948708       0.88630140       0.63795344 </v>
   <v>       0.24128899       0.98963514       0.25655384 </v>
   <v>       0.74807357       0.00186624       0.26056971 </v>
   <v>       0.26514585       0.49503566       0.24031185 </v>
   <v>       0.73214821       0.48496128       0.26071521 </v>
   <v>       0.25236804       0.99140351       0.76043549 </v>
   <v>       0.74628183       0.00114414       0.75115273 </v>
   <v>       0.24572400       0.49936282       0.75888108 </v>
   <v>       0.75037011       0.48736059       0.74229637 </v>
   <v>       0.13046848       0.11570371       0.11902324 </v>
   <v>       0.62988178       0.13684365       0.12456183 </v>
   <v>       0.13556433       0.61643934       0.12358169 </v>
   <v>       0.63982665       0.62444619       0.13947068 </v>
   <v>       0.13734013       0.12732691       0.61889038 </v>
   <v>       0.61159131       0.12730500       0.62089689 </v>
   <v>       0.11650620       0.61757932       0.62571072 </v>
   <v>       0.63018273       0.62943458       0.63440237 </v>
   <v>       0.25121331       0.24506696       0.98949263 </v>
   <v>       0.74908456       0.24536032       0.99992209 </v>
   <v>       0.24734886       0.75014650       0.99988120 </v>
   <v>       0.74308253       0.76434609       0.99914019 </v>
   <v>       0.26817471       0.26802304       0.48716018 </v>
   <v>       0.73969957       0.24812051       0.49852675 </v>
   <v>       0.24599734       0.73204021       0.49293058 </v>
   <v>       0.76331137       0.74658224       0.49838028 </v>
   <v>       0.13004650       0.38541365       0.37067911 </v>
   <v>       0.59708268       0.37360776       0.37980425 </v>
   <v>       0.12524683       0.87145502       0.38060177 </v>
   <v>       0.62581927       0.87380996       0.38306867 </v>
   <v>       0.12620477       0.37129266       0.88406941 </v>
   <v>       0.63151522       0.37784543       0.88367186 </v>
   <v>       0.12105975       0.87283558       0.87742460 </v>
   <v>       0.62897239       0.89862233       0.87886941 </v>
  </varray>
  <varray name="velocities" >
   <v>       0.00036289       0.00110153       0.00131678 </v>
   <v>       0.00110543       0.00108675      -0.00165276 </v>
   <v>      -0.00071776      -0.00114270      -0.00044557 </v>
   <v>      -0.00046826       0.00059467      -0.00010614 </v>
   <v>      -0.00049651       0.00023319      -0.00086886 </v>
   <v>      -0.00220205       0.00159325      -0.00046516 </v>
   <v>      -0.00049251      -0.00163815       0.00065140 </v>
   <v>      -0.00160788       0.00094404       0.00133086 </v>
   <v>       0.00015820      -0.00097118      -0.00091146 </v>
   <v>       0.00310016      -0.00033803       0.00043396 </v>
   <v>       0.00117538       0.00059343       0.00014988 </v>
   <v>      -0.00101653      -0.00259662       0.00021781 </v>
   <v>       0.00117937      -0.00048007       0.00180169 </v>
   <v>      -0.00070650       0.00002724       0.00086396 </v>
   <v>      -0.00026082      -0.00034578      -0.00151741 </v>
   <v>      -0.00044016       0.00077358       0.00201818 </v>
   <v>      -0.00004312       0.00215876      -0.00009581 </v>
   <v>       0.00198186      -0.00006456       0.00009968 </v>
   <v>       0.00047402      -0.00128575      -0.00141647 </v>
   <v>       0.00045025      -0.00021682      -0.00020789 </v>
   <v>       0.00075699       0.00177231      -0.00203422 </v>
   <v>       0.00123873       0.00051674      -0.00134689 </v>
   <v>      -0.00125017       0.00109667      -0.00140796 </v>
   <v>      -0.00128338      -0.00024960       0.00010929 </v>
   <v>       0.00070496       0.00075433      -0.00127611 </v>
   <v>      -0.00032827      -0.00095842       0.00020703 </v>
   <v>       0.00043684      -0.00091540       0.00081587 </v>
   <v>       0.00021928       0.00133428       0.00008577 </v>
   <v>       0.00051683      -0.00030796       0.00181708 </v>
   <v>       0.00025241      -0.00133799       0.00034789 </v>
   <v>       0.00055236       0.00028749       0.00123295 </v>
   <v>      -0.00117178       0.00060306       0.00084345 </v>
   <v>      -0.00027073      -0.00152380       0.00151338 </v>
   <v>      -0.00261721       0.00033113       0.00108385 </v>
   <v>       0.00038188      -0.00092430      -0.00233124 </v>
   <v>      -0.00041395      -0.00075668       0.00007757 </v>
   <v>       0.00051245       0.00003606      -0.00005938 </v>
   <v>       0.00007282       0.00056000       0.00082591 </v>
   <v>       0.00118240      -0.00031749      -0.00047996 </v>
   <v>      -0.00131307       0.00033381       0.00029496 </v>
   <v>       0.00092174      -0.00203395      -0.00134715 </v>
   <v>       0.00028564      -0.00108982      -0.00015344 </v>
   <v>      -0.00256707       0.00082014       0.00083038 </v>
   <v>       0.00011100       0.00028854      -0.00011587 </v>
   <v>      -0.00013087      -0.00013382      -0.00210560 </v>
   <v>      -0.00050098       0.00190879      -0.00160323 </v>
   <v>       0.00075370      -0.00082342       0.00084965 </v>
   <v>       0.00155239       0.00176030       0.00092822 </v>
   <v>      -0.00104241       0.00070162      -0.00118610 </v>
   <v>      -0.00006826       0.00170403       0.00027083 </v>
   <v>       0.00060035       0.00053245       0.00011661 </v>
   <v>      -0.00085980       0.00034749      -0.00019099 </v>
   <v>      -0.00005115       0.00093586      -0.00106622 </v>
   <v>      -0.00152239      -0.00076958      -0.00003914 </v>
   <v>       0.00118717      -0.00183477      -0.00016155 </v>
   <v>       0.00059874      -0.00104800       0.00043221 </v>
   <v>      -0.00049186      -0.00188662      -0.00008328 </v>
   <v>      -0.00139534       0.00002061       0.00028006 </v>
   <v>       0.00068629       0.00011897      -0.00027369 </v>
   <v>       0.00034099       0.00111641       0.00047075 </v>
   <v>       0.00067388       0.00052196       0.00059139 </v>
   <v>      -0.00015290       0.00067130       0.00105343 </v>
   <v>       0.00062848      -0.00150644       0.00095272 </v>
   <v>       0.00072781      -0.00068307       0.00003406 </v>
  </varray>
 </structure>
</modeling>
