si_2x2x2                                
           1
    10.861800    0.000000    0.000000
     0.000000   10.861800    0.000000
     0.000000    0.000000   10.861800
   Si
  64
Direct configuration=     1
   0.00913475  0.00306694  0.99955124
   0.51035749  0.98353185  0.99623598
   0.99119431  0.50236888  0.00162551
   0.49416598  0.49995237  0.99962929
   0.00290396  0.98994698  0.49476542
   0.48907612  0.01760360  0.51412988
   0.00987047  0.48295459  0.51462205
   0.50232125  0.51453045  0.49961190
   0.36923159  0.13027147  0.37364894
   0.87541657  0.12305672  0.37051264
   0.38182184  0.62857477  0.36279993
   0.88237489  0.60681759  0.38519414
   0.37248392  0.12725335  0.88035897
   0.88471669  0.13269141  0.88373552
   0.37117882  0.61904492  0.87567374
   0.86949168  0.62639411  0.87263117
   0.00404341  0.24535861  0.23533788
   0.50099889  0.24843653  0.24524058
   0.99085786  0.73735323  0.25221281
   0.50857918  0.75170550  0.24906852
   0.99791882  0.24606384  0.74891084
   0.50257698  0.23757565  0.75443976
   0.99193003  0.75421424  0.74214078
   0.49270773  0.74778955  0.74764171
   0.37682977  0.37263787  0.12212640
   0.87340661  0.37410047  0.12132754
   0.38014307  0.87743433  0.12796724
   0.87501646  0.88463603  0.13064250
   0.37783732  0.37485989  0.61917990
   0.86665021  0.37626978  0.63132652
   0.36960359  0.88023226  0.63820957
   0.86429981  0.88119981  0.61398909
   0.25480491  0.00178618  0.25248312
   0.74236344  0.00796418  0.26130276
   0.24622588  0.50595038  0.24497237
   0.74257836  0.49442015  0.24171906
   0.24240676  0.00229827  0.75410363
   0.74700391  0.00948254  0.74802114
   0.25555552  0.50734896  0.74886070
   0.75555348  0.50521969  0.75483764
   0.13410147  0.12394129  0.12392717
   0.62053255  0.12375046  0.12760015
   0.11852042  0.62525221  0.11739345
   0.62801145  0.62652057  0.12609837
   0.11380014  0.12142968  0.61490849
   0.62483940  0.13247005  0.61221325
   0.13183140  0.62608806  0.62225113
   0.62873202  0.62609493  0.63215898
   0.25069540  0.25418940  0.00624680
   0.74732473  0.24731729  0.00325908
   0.25194374  0.74212424  0.00399314
   0.76121378  0.75849433  0.00894766
   0.24972706  0.24967131  0.50014301
   0.76212812  0.24923470  0.49595038
   0.26324185  0.74966994  0.50109716
   0.75141266  0.74925075  0.49356271
   0.12582591  0.37027153  0.37198627
   0.61784004  0.38480713  0.38162784
   0.12743326  0.86257764  0.37246032
   0.61272045  0.87517713  0.38286339
   0.12780189  0.37759795  0.86867811
   0.61724455  0.37916693  0.87527688
   0.12520399  0.87158651  0.88046243
   0.63224138  0.86091805  0.86610542
si_2x2x2                                
           1
    10.861800    0.000000    0.000000
     0.000000   10.861800    0.000000
     0.000000    0.000000   10.861800
   Si
  64
Direct configuration=     2
   0.01005777  0.00335679  1.00091943
   0.51156013  0.98393895  0.99548753
   0.98965001  0.50089807  0.00170448
   0.49397427  0.49937879  0.99974528
   0.00327616  0.98785308  0.49312937
   0.48835201  0.01997952  0.51410054
   0.01009096  0.48135695  0.51471754
   0.50196381  0.51403046  0.49771218
   0.36974792  0.13038324  0.37443594
   0.87564795  0.12256203  0.37027152
   0.38249587  0.62751253  0.36233721
   0.88189960  0.60524303  0.38778416
   0.37358998  0.12732424  0.88014866
   0.88309200  0.13310853  0.88483683
   0.37030009  0.61824541  0.87520406
   0.86866698  0.62709774  0.87277058
   0.00474116  0.24648139  0.23432091
   0.50232177  0.24893663  0.24639680
   0.98949557  0.73631897  0.25308045
   0.50964814  0.75098326  0.24895266
   0.99859719  0.24636926  0.74856157
   0.50281805  0.23668349  0.75467433
   0.99169080  0.75555229  0.74088305
   0.49266581  0.74833479  0.74825774
   0.37597581  0.37389395  0.12300497
   0.87246060  0.37416734  0.12073515
   0.38075197  0.87723596  0.12737313
   0.87476475  0.88627706  0.13276858
   0.37867261  0.37557533  0.61893693
   0.86607763  0.37710632  0.63235642
   0.36898783  0.88069539  0.64100220
   0.86324569  0.88226499  0.61403412
   0.25491812  0.00011223  0.25379867
   0.74111357  0.00662616  0.26228617
   0.24742972  0.50542035  0.24520695
   0.74187632  0.49434453  0.24175478
   0.24136854  0.00088552  0.75639218
   0.74769513  0.00887504  0.74881191
   0.25649415  0.50720626  0.74932607
   0.75521325  0.50534414  0.75603386
   0.13477751  0.12404459  0.12185127
   0.61949536  0.12518096  0.12629857
   0.11712039  0.62618319  0.11888145
   0.62967269  0.62743135  0.12695766
   0.11389987  0.12154057  0.61469736
   0.62469938  0.13533404  0.61180247
   0.13224697  0.62602769  0.62269712
   0.62862013  0.62648951  0.63200693
   0.25147432  0.25529050  0.00541853
   0.74643246  0.24719651  0.00327758
   0.25134025  0.74231940  0.00281990
   0.76126003  0.76005805  0.00949457
   0.25048862  0.24938284  0.49892037
   0.76139020  0.24996671  0.49553292
   0.26327775  0.74840468  0.50013993
   0.75241336  0.74863999  0.49270589
   0.12640837  0.36931083  0.37153769
   0.61683379  0.38430551  0.38056700
   0.12731480  0.86035582  0.37034492
   0.61246489  0.87537026  0.38214645
   0.12928805  0.37724968  0.86850036
   0.61658367  0.37784678  0.87435178
   0.12509157  0.87228477  0.87965100
   0.63401585  0.86182571  0.86514338
si_2x2x2                                
           1
    10.861800    0.000000    0.000000
     0.000000   10.861800    0.000000
     0.000000    0.000000   10.861800
   Si
  64
Direct configuration=     3
   0.01075599  0.00352830  1.00241446
   0.51256494  0.98469661  0.99468757
   0.98839259  0.49937874  0.00139981
   0.49402038  0.49893918  0.99996555
   0.00351356  0.98588918  0.49133788
   0.48753662  0.02170437  0.51377638
   0.01027960  0.48000120  0.51464474
   0.50149492  0.51334501  0.49601332
   0.37046749  0.13047083  0.37517266
   0.87629456  0.12214292  0.37005261
   0.38302078  0.62645168  0.36205793
   0.88119302  0.60371240  0.39014495
   0.37474813  0.12702569  0.88002277
   0.88124596  0.13324871  0.88575281
   0.36968585  0.61779243  0.87489922
   0.86823581  0.62812360  0.87319863
   0.00525194  0.24765809  0.23364307
   0.50342851  0.24963096  0.24781635
   0.98824048  0.73547971  0.25392821
   0.51052083  0.75033723  0.24871519
   0.99930291  0.24686264  0.74816638
   0.50294811  0.23628849  0.75463188
   0.99158728  0.75683783  0.73968155
   0.49279651  0.74873741  0.74903925
   0.37509978  0.37531505  0.12414518
   0.87142231  0.37413782  0.12024331
   0.38129880  0.87685282  0.12668953
   0.87465655  0.88797206  0.13510147
   0.37958172  0.37633651  0.61892648
   0.86576994  0.37771354  0.63340483
   0.36843558  0.88123363  0.64342929
   0.86236151  0.88329590  0.61431658
   0.25487029 -0.00171360  0.25506022
   0.73971779  0.00507994  0.26303865
   0.24860354  0.50476401  0.24548155
   0.74145915  0.49428654  0.24224423
   0.24022508 -0.00024305  0.75869810
   0.74844211  0.00828874  0.74957031
   0.25720513  0.50664319  0.74953392
   0.75433144  0.50523399  0.75719250
   0.13550015  0.12405091  0.11985059
   0.61863184  0.12633513  0.12484135
   0.11572527  0.62701597  0.12051859
   0.63129566  0.62840610  0.12746544
   0.11429232  0.12165030  0.61470309
   0.62487517  0.13819569  0.61186308
   0.13252100  0.62604763  0.62319044
   0.62849738  0.62703413  0.63161873
   0.25225488  0.25638300  0.00425146
   0.74545843  0.24724874  0.00318736
   0.25076793  0.74279651  0.00164346
   0.76109080  0.76135950  0.00975127
   0.25109377  0.24916872  0.49777262
   0.76035258  0.25101334  0.49504602
   0.26322163  0.74718180  0.49911430
   0.75325191  0.74788670  0.49196314
   0.12698645  0.36836782  0.37098536
   0.61614358  0.38339919  0.37924826
   0.12725615  0.85820485  0.36821410
   0.61235795  0.87580485  0.38162002
   0.13060431  0.37688417  0.86847825
   0.61619261  0.37635376  0.87343864
   0.12484724  0.87279055  0.87870402
   0.63577352  0.86294033  0.86429110
si_2x2x2                                
           1
    10.861800    0.000000    0.000000
     0.000000   10.861800    0.000000
     0.000000    0.000000   10.861800
   Si
  64
Direct configuration=     4
   0.01117589  0.00356096  1.00396688
   0.51336100  0.98577817  0.99384422
   0.98747636  0.49788314  0.00072595
   0.49432714  0.49865072  1.00027406
   0.00364224  0.98411009  0.48944492
   0.48670345  0.02275345  0.51326257
   0.01046421  0.47890214  0.51444621
   0.50096564  0.51248433  0.49458443
   0.37135601  0.13051248  0.37577221
   0.87730351  0.12180369  0.36984018
   0.38338693  0.62542281  0.36194052
   0.88028518  0.60222442  0.39221728
   0.37592832  0.12635064  0.87999324
   0.87929284  0.13310352  0.88644425
   0.36938489  0.61770825  0.87480583
   0.86820354  0.62945765  0.87389336
   0.00557362  0.24883092  0.23327413
   0.50426292  0.25048762  0.24941655
   0.98703322  0.73481607  0.25478018
   0.51116404  0.74979316  0.24837209
   0.99999341  0.24750610  0.74777257
   0.50294705  0.23640511  0.75430443
   0.99160233  0.75804774  0.73856909
   0.49310828  0.74898993  0.74998316
   0.37425437  0.37684481  0.12552688
   0.87028599  0.37399907  0.11988703
   0.38178716  0.87629343  0.12592269
   0.87468726  0.88964757  0.13758675
   0.38053273  0.37710808  0.61912313
   0.86572159  0.37808808  0.63445909
   0.36793932  0.88183354  0.64541686
   0.86166555  0.88426444  0.61478131
   0.25468678 -0.00361872  0.25620473
   0.73820799  0.00345974  0.26353816
   0.24966659  0.50403196  0.24580342
   0.74135066  0.49424033  0.24317557
   0.23902724 -0.00099612  0.76095325
   0.74922678  0.00781712  0.75025799
   0.25766127  0.50566305  0.74945112
   0.75291151  0.50492740  0.75829829
   0.13631919  0.12399480  0.11803095
   0.61794988  0.12718084  0.12330590
   0.11437470  0.62769506  0.12222325
   0.63285165  0.62942487  0.12758960
   0.11496075  0.12170819  0.61488241
   0.62533975  0.14093410  0.61237166
   0.13264656  0.62611934  0.62370481
   0.62835083  0.62769551  0.63098374
   0.25306430  0.25744413  0.00277239
   0.74439743  0.24750122  0.00297935
   0.25019094  0.74352128  0.00050036
   0.76075773  0.76242084  0.00973964
   0.25155073  0.24903540  0.49674578
   0.75910016  0.25237882  0.49447258
   0.26308547  0.74603271  0.49807192
   0.75388941  0.74705310  0.49137892
   0.12755127  0.36747602  0.37033544
   0.61579610  0.38212555  0.37771693
   0.12726032  0.85612095  0.36611272
   0.61237282  0.87643636  0.38132989
   0.13170695  0.37651205  0.86858756
   0.61605601  0.37474258  0.87257945
   0.12440325  0.87305807  0.87770529
   0.63746896  0.86420132  0.86356490
si_2x2x2                                
           1
    10.861800    0.000000    0.000000
     0.000000   10.861800    0.000000
     0.000000    0.000000   10.861800
   Si
  64
Direct configuration=     5
   0.01128506  0.00345874  1.00551869
   0.51393295  0.98714076  0.99296082
   0.98694251  0.49647070 -0.00030253
   0.49490382  0.49851753  1.00066278
   0.00369589  0.98254016  0.48750542
   0.48593483  0.02311552  0.51266751
   0.01066361  0.47805415  0.51416082
   0.50044535  0.51144395  0.49346375
   0.37236556  0.13049718  0.37616358
   0.87860308  0.12154387  0.36962631
   0.38359714  0.62446539  0.36195735
   0.87921177  0.60077337  0.39396129
   0.37709486  0.12532833  0.88005611
   0.87733419  0.13267326  0.88689398
   0.36940896  0.61797991  0.87494716
   0.86854946  0.63105267  0.87479922
   0.00571407  0.24994002  0.23316849
   0.50477375  0.25145088  0.25110041
   0.98582535  0.73431400  0.25565065
   0.51154753  0.74937458  0.24794946
   1.00063317  0.24824574  0.74742530
   0.50278573  0.23703094  0.75369724
   0.99172765  0.75915726  0.73756781
   0.49360469  0.74910119  0.75107282
   0.37348457  0.37840500  0.12710301
   0.86904516  0.37376211  0.11968449
   0.38222231  0.87557506  0.12507613
   0.87484260  0.89123580  0.14016784
   0.38148315  0.37784173  0.61949283
   0.86591143  0.37823430  0.63549306
   0.36749646  0.88247309  0.64690499
   0.86118143  0.88512725  0.61535455
   0.25439751 -0.00553613  0.25717211
   0.73663892  0.00190497  0.26376989
   0.25052767  0.50328429  0.24617910
   0.74156227  0.49421369  0.24452435
   0.23784262 -0.00128994  0.76308203
   0.75002949  0.00754987  0.75083437
   0.25785816  0.50430808  0.74907758
   0.75100038  0.50447781  0.75933997
   0.13725891  0.12392371  0.11648140
   0.61744484  0.12771126  0.12178410
   0.11311043  0.62817560  0.12392099
   0.63432309  0.63044311  0.12732324
   0.11587496  0.12166982  0.61518920
   0.62604755  0.14343546  0.61328887
   0.13262125  0.62622464  0.62421678
   0.62816834  0.62844379  0.63010256
   0.25395434  0.25843793  0.00103752
   0.74326249  0.24795978  0.00264953
   0.24958397  0.74445740 -0.00057272
   0.76032773  0.76329020  0.00950241
   0.25186478  0.24900254  0.49590306
   0.75771871  0.25404223  0.49380279
   0.26288143  0.74499580  0.49705941
   0.75430582  0.74620409  0.49098597
   0.12809886  0.36666888  0.36959671
   0.61580476  0.38056082  0.37605375
   0.12732349  0.85409686  0.36408985
   0.61247284  0.87720212  0.38130655
   0.13256216  0.37614358  0.86880334
   0.61614510  0.37306879  0.87182641
   0.12369610  0.87304345  0.87672978
   0.63904293  0.86556107  0.86298776
si_2x2x2                                
           1
    10.861800    0.000000    0.000000
     0.000000   10.861800    0.000000
     0.000000    0.000000   10.861800
   Si
  64
Direct configuration=     6
   0.01103083  0.00320403  1.00700664
   0.51427273  0.98871484  0.99205541
   0.98681300  0.49519216 -0.00164512
   0.49575306  0.49853746  1.00111827
   0.00370463  0.98120883  0.48557609
   0.48532722  0.02281601  0.51209331
   0.01088829  0.47745876  0.51381876
   0.50000526  0.51021637  0.49267899
   0.37344156  0.13040797  0.37629979
   0.88009780  0.12137115  0.36939481
   0.38365748  0.62359869  0.36207675
   0.87801042  0.59937434  0.39534462
   0.37822755  0.12400843  0.88019207
   0.87546503  0.13196886  0.88709331
   0.36974685  0.61856940  0.87531180
   0.86923049  0.63283897  0.87583859
   0.00569060  0.25092871  0.23327924
   0.50492390  0.25242900  0.25275193
   0.98457221  0.73395343  0.25655187
   0.51165781  0.74909459  0.24746441
   1.00119561  0.24902505  0.74716460
   0.50242755  0.23813357  0.75283490
   0.99195237  0.76013936  0.73670582
   0.49428655  0.74908606  0.75228148
   0.37284162  0.37992551  0.12880754
   0.86771794  0.37344364  0.11963961
   0.38259859  0.87472172  0.12415556
   0.87510258  0.89266309  0.14276919
   0.38238647  0.37849135  0.61999425
   0.86630811  0.37817674  0.63648691
   0.36709685  0.88311912  0.64785855
   0.86093420  0.88585466  0.61595944
   0.25404960 -0.00739666  0.25790172
   0.73507430  0.00054207  0.26374586
   0.25111381  0.50259211  0.24662501
   0.74208749  0.49423020  0.24623077
   0.23672788 -0.00107360  0.76501051
   0.75083675  0.00755965  0.75127135
   0.25781384  0.50265713  0.74844594
   0.74867273  0.50396756  0.76031931
   0.13834713  0.12388279  0.11526244
   0.61709404  0.12794025  0.12036440
   0.11197135  0.62842403  0.12552802
   0.63570464  0.63141519  0.12668263
   0.11699403  0.12150460  0.61558642
   0.62694862  0.14558530  0.61455128
   0.13244808  0.62634341  0.62469611
   0.62792893  0.62924769  0.62899748
   0.25496155  0.25933052 -0.00088285
   0.74208015  0.24861350  0.00220490
   0.24892226  0.74555410 -0.00153539
   0.75987273  0.76402918  0.00910436
   0.25205596  0.24906650  0.49528961
   0.75631890  0.25596989  0.49304050
   0.26262000  0.74409423  0.49613016
   0.75447398  0.74540211  0.49080923
   0.12862612  0.36597882  0.36878136
   0.61618139  0.37879860  0.37434163
   0.12744447  0.85214942  0.36220903
   0.61260587  0.87802964  0.38157370
   0.13314058  0.37579846  0.86909736
   0.61642084  0.37138936  0.87122532
   0.12267127  0.87272558  0.87585619
   0.64042556  0.86697649  0.86257628
si_2x2x2                                
           1
    10.861800    0.000000    0.000000
     0.000000   10.861800    0.000000
     0.000000    0.000000   10.861800
   Si
  64
Direct configuration=     7
   0.01039991  0.00279753  1.00837856
   0.51437751  0.99042981  0.99114753
   0.98709142  0.49407996 -0.00324320
   0.49686492  0.49870051  1.00162814
   0.00370158  0.98013424  0.48371373
   0.48497376  0.02189427  0.51162765
   0.01114981  0.47711666  0.51345080
   0.49970690  0.50879917  0.49222524
   0.37451636  0.13023407  0.37615767
   0.88168468  0.12130257  0.36913069
   0.38358544  0.62284357  0.36227588
   0.87672275  0.59803951  0.39636019
   0.37930937  0.12246588  0.88036740
   0.87376352  0.13101183  0.88706554
   0.37035796  0.61941309  0.87587001
   0.87020165  0.63473379  0.87692055
   0.00551923  0.25174114  0.23355028
   0.50467572  0.25331657  0.25423326
   0.98323461  0.73370758  0.25748205
   0.51150547  0.74896157  0.24693474
   1.00165823  0.24978195  0.74701853
   0.50184005  0.23966634  0.75175345
   0.99226074  0.76096400  0.73600104
   0.49513890  0.74898074  0.75356440
   0.37238269  0.38132866  0.13055262
   0.86633644  0.37307242  0.11975955
   0.38291374  0.87376732  0.12315600
   0.87544739  0.89386556  0.14533433
   0.38320589  0.37902180  0.62058210
   0.86687299  0.37794672  0.63742003
   0.36674526  0.88374832  0.64828041
   0.86093537  0.88640895  0.61653016
   0.25368858 -0.00913380  0.25833787
   0.73357768 -0.00050656  0.26347024
   0.25135643  0.50201434  0.24716555
   0.74290670  0.49432410  0.24822353
   0.23574346 -0.00032343  0.76668572
   0.75163859  0.00788984  0.75153547
   0.25757146  0.50080378  0.74760478
   0.74602281  0.50346863  0.76123292
   0.13958349  0.12391123  0.11440886
   0.61686742  0.12790671  0.11913998
   0.11098678  0.62841701  0.12697701
   0.63698221  0.63228784  0.12571869
   0.11827581  0.12119891  0.61604048
   0.62799549  0.14729209  0.61607870
   0.13213222  0.62645230  0.62511449
   0.62760516  0.63006234  0.62769116
   0.25612930  0.26008721 -0.00289562
   0.74087724  0.24942581  0.00164219
   0.24818747  0.74675942 -0.00235664
   0.75946531  0.76469407  0.00860089
   0.25214809  0.24921828  0.49493639
   0.75500727  0.25810683  0.49218579
   0.26231220  0.74335622  0.49532276
   0.75438603  0.74470874  0.49087304
   0.12912853  0.36542499  0.36792109
   0.61690440  0.37696636  0.37269657
   0.12762325  0.85028630  0.36052725
   0.61272160  0.87883971  0.38214014
   0.13340749  0.37548948  0.86943504
   0.61682506  0.36977210  0.87081957
   0.12129917  0.87210734  0.87514598
   0.64156305  0.86841573  0.86235077
si_2x2x2                                
           1
    10.861800    0.000000    0.000000
     0.000000   10.861800    0.000000
     0.000000    0.000000   10.861800
   Si
  64
Direct configuration=     8
   0.00939251  0.00225103  1.00961156
   0.51425336  0.99219243  0.99024521
   0.98775770  0.49315315 -0.00502992
   0.49822557  0.49898572  1.00219178
   0.00370787  0.97932029  0.48196611
   0.48495720  0.02039472  0.51134622
   0.01145772  0.47701524  0.51306762
   0.49959801  0.50719321  0.49207565
   0.37553592  0.12996784  0.37574487
   0.88327046  0.12135191  0.36882696
   0.38339294  0.62221063  0.36254715
   0.87539130  0.59678587  0.39700917
   0.38031651  0.12079428  0.88053900
   0.87229868  0.12983880  0.88684536
   0.37118248  0.62042682  0.87657839
   0.87140519  0.63665022  0.87796560
   0.00521798  0.25233417  0.23392649
   0.50400372  0.25402418  0.25541434
   0.98178488  0.73354757  0.25843663
   0.51111626  0.74896756  0.24638552
   1.00201260  0.25045822  0.74701160
   0.50098667  0.24156426  0.75049233
   0.99263689  0.76160447  0.73545885
   0.49614808  0.74883165  0.75487340
   0.37215897  0.38256028  0.13225521
   0.86494237  0.37268172  0.12003458
   0.38315185  0.87276121  0.12208376
   0.87585270  0.89478520  0.14781236
   0.38390907  0.37940233  0.62121710
   0.86756112  0.37758764  0.63827575
   0.36644498  0.88434146  0.64819666
   0.86119016  0.88677388  0.61700294
   0.25336029 -0.01070045  0.25844123
   0.73220980 -0.00114133  0.26295179
   0.25120127  0.50160906  0.24782073
   0.74398587  0.49453155  0.25041147
   0.23493475  0.00093246  0.76806507
   0.75242214  0.00856206  0.75160337
   0.25718001  0.49886291  0.74663335
   0.74317078  0.50305852  0.76206547
   0.14094515  0.12403169  0.11394036
   0.61673408  0.12765197  0.11818076
   0.11018032  0.62814619  0.12820595
   0.63814943  0.63301519  0.12449430
   0.11967889  0.12075070  0.61651105
   0.62914279  0.14848502  0.61778137
   0.13168616  0.62653389  0.62544121
   0.62716568  0.63084295  0.62621473
   0.25748797  0.26067181 -0.00490688
   0.73969489  0.25035723  0.00096782
   0.24737044  0.74803366 -0.00300159
   0.75917387  0.76534260  0.00804618
   0.25217581  0.24943854  0.49486187
   0.75388748  0.26036768  0.49127181
   0.26195892  0.74279075  0.49467375
   0.75405167  0.74418136  0.49118694
   0.12958862  0.36502916  0.36704568
   0.61795053  0.37518798  0.37120319
   0.12784492  0.84852271  0.35909879
   0.61277629  0.87955436  0.38299654
   0.13334936  0.37523402  0.86978004
   0.61729161  0.36826822  0.87064708
   0.11957093  0.87122895  0.87463914
   0.64241762  0.86986060  0.86231917
si_2x2x2                                
           1
    10.861800    0.000000    0.000000
     0.000000   10.861800    0.000000
     0.000000    0.000000   10.861800
   Si
  64
Direct configuration=     9
   0.00803846  0.00159166  1.01069045
   0.51392557  0.99391923  0.98937913
   0.98877309  0.49241318 -0.00692514
   0.49982304  0.49937068  1.00280395
   0.00374979  0.97876736  0.48037419
   0.48531754  0.01838438  0.51129469
   0.01181153  0.47713410  0.51267915
   0.49971811  0.50542064  0.49219002
   0.37644288  0.12958665  0.37510950
   0.88476043  0.12152940  0.36848201
   0.38309589  0.62169942  0.36289472
   0.87406716  0.59563958  0.39732102
   0.38122753  0.11910775  0.88064993
   0.87111729  0.12850504  0.88647127
   0.37217163  0.62152406  0.87740442
   0.87278594  0.63851116  0.87890886
   0.00480900  0.25267102  0.23435525
   0.50289784  0.25447133  0.25619239
   0.98020845  0.73343675  0.25939326
   0.51052416  0.74909090  0.24582450
   1.00226182  0.25098435  0.74715948
   0.49985177  0.24374110  0.74909263
   0.99305409  0.76203415  0.73508144
   0.49729411  0.74868632  0.75615951
   0.37219677  0.38358568  0.13384104
   0.86359226  0.37231840  0.12043161
   0.38330538  0.87175345  0.12094299
   0.87629447  0.89537833  0.15014584
   0.38446340  0.37960582  0.62184317
   0.86831162  0.37716797  0.63903257
   0.36618493  0.88486588  0.64764632
   0.86169412  0.88694344  0.61733140
   0.25311188 -0.01206247  0.25817140
   0.73101830 -0.00129600  0.26222664
   0.25060750  0.50143216  0.24859308
   0.74527798  0.49487834  0.25268997
   0.23431039  0.00262034  0.76913319
   0.75316913  0.00956943  0.75144704
   0.25668050  0.49694601  0.74561132
   0.74025045  0.50280354  0.76279555
   0.14239842  0.12425936  0.11383995
   0.61667585  0.12723699  0.11755002
   0.10955939  0.62761019  0.12917898
   0.63920813  0.63355818  0.12307977
   0.12115491  0.12017850  0.61697677
   0.63036968  0.14913238  0.61957432
   0.13113119  0.62657431  0.62565467
   0.62658789  0.63154480  0.62462857
   0.25907153  0.26105792 -0.00683386
   0.73858868  0.25135187  0.00020504
   0.24646387  0.74932733 -0.00345097
   0.75905114  0.76602983  0.00749249
   0.25218015  0.24969913  0.49506351
   0.75304335  0.26265453  0.49034533
   0.26156724  0.74239651  0.49420755
   0.75348567  0.74386588  0.49175021
   0.12998475  0.36480484  0.36620071
   0.61926888  0.37358032  0.36993141
   0.12809604  0.84686987  0.35796868
   0.61273993  0.88011072  0.38412025
   0.13296263  0.37504011  0.87009494
   0.61774439  0.36693005  0.87072307
   0.11751468  0.87015010  0.87434541
   0.64295542  0.87130575  0.86248341
si_2x2x2                                
           1
    10.861800    0.000000    0.000000
     0.000000   10.861800    0.000000
     0.000000    0.000000   10.861800
   Si
  64
Direct configuration=    10
   0.00638540  0.00084999  1.01161657
   0.51343119  0.99549640  0.98858989
   0.99007287  0.49186175 -0.00883770
   0.50162220  0.49984067  1.00346971
   0.00385978  0.97846712  0.47898205
   0.48608040  0.01595519  0.51148692
   0.01219939  0.47744242  0.51228261
   0.50008466  0.50350272  0.49251832
   0.37719128  0.12905408  0.37432790
   0.88607257  0.12184271  0.36809170
   0.38272263  0.62130191  0.36331858
   0.87278753  0.59464349  0.39734543
   0.38201922  0.11752930  0.88061833
   0.87026396  0.12708209  0.88600109
   0.37326065  0.62262200  0.87830806
   0.87429664  0.64024038  0.87969096
   0.00432202  0.25272595  0.23478406
   0.50138660  0.25461389  0.25648962
   0.97852604  0.73333280  0.26033118
   0.50976772  0.74930282  0.24526242
   1.00240466  0.25128343  0.74746330
   0.49844714  0.24609201  0.74760734
   0.99348653  0.76222444  0.73486098
   0.49854261  0.74858575  0.75736472
   0.37251255  0.38438689  0.13522912
   0.86234935  0.37202207  0.12092088
   0.38335639  0.87080207  0.11974463
   0.87673561  0.89561017  0.15229561
   0.38483501  0.37962637  0.62239724
   0.86908931  0.37674617  0.63967627
   0.36595276  0.88529011  0.64669189
   0.86243896  0.88692271  0.61747916
   0.25297168 -0.01319445  0.25750522
   0.73002904 -0.00093834  0.26133605
   0.24955668  0.50152226  0.24948578
   0.74673483  0.49536788  0.25494442
   0.23385680  0.00462747  0.76988872
   0.75386596  0.01088906  0.75104932
   0.25609838  0.49516980  0.74462343
   0.73737828  0.50278149  0.76339006
   0.14390231  0.12458190  0.11407665
   0.61667044  0.12672981  0.11727784
   0.10912308  0.62681433  0.12986403
   0.64014775  0.63390006  0.12156975
   0.12265024  0.11952642  0.61742310
   0.63165535  0.14923075  0.62137744
   0.13049768  0.62656404  0.62574042
   0.62584887  0.63212092  0.62300295
   0.26088830  0.26123055 -0.00859037
   0.73760824  0.25234031 -0.00060849
   0.24547624  0.75059276 -0.00369742
   0.75914089  0.76680223  0.00698152
   0.25220149  0.24996607  0.49552035
   0.75255306  0.26486765  0.48948316
   0.26114350  0.74217884  0.49395341
   0.75271537  0.74379416  0.49254393
   0.13030067  0.36475839  0.36542848
   0.62079472  0.37224448  0.36890540
   0.12835979  0.84534099  0.35716105
   0.61259530  0.88045699  0.38546297
   0.13227035  0.37490376  0.87035013
   0.61810668  0.36580347  0.87104711
   0.11519128  0.86897489  0.87426436
   0.64316312  0.87275122  0.86283039
si_2x2x2                                
           1
    10.861800    0.000000    0.000000
     0.000000   10.861800    0.000000
     0.000000    0.000000   10.861800
   Si
  64
Direct configuration=    11
   0.00450373  0.00006429  1.01240871
   0.51282053  0.99682354  0.98792340
   0.99158649  0.49150401 -0.01067620
   0.50357492  0.50037283  1.00419163
   0.00406057  0.97840133  0.47781747
   0.48723840  0.01321566  0.51191768
   0.01259884  0.47791805  0.51188868
   0.50070875  0.50147584  0.49299280
   0.37774105  0.12833425  0.37348832
   0.88713753  0.12231055  0.36765588
   0.38229849  0.62100235  0.36382751
   0.87159959  0.59385012  0.39715738
   0.38264778  0.11617111  0.88038257
   0.86976900  0.12564099  0.88548405
   0.37438643  0.62364767  0.87925679
   0.87589293  0.64177256  0.88027006
   0.00378749  0.25249200  0.23517169
   0.49952114  0.25443141  0.25627482
   0.97676459  0.73318533  0.26123583
   0.50889441  0.74957183  0.24471598
   1.00244881  0.25128734  0.74791293
   0.49681429  0.24850028  0.74609577
   0.99390165  0.76214521  0.73477933
   0.49986844  0.74857287  0.75842632
   0.37309616  0.38496615  0.13635629
   0.86126636  0.37184197  0.12146162
   0.38330293  0.86995173  0.11849372
   0.87714586  0.89548064  0.15423859
   0.38498075  0.37946542  0.62281847
   0.86983499  0.37638975  0.64018911
   0.36574144  0.88558694  0.64541216
   0.86342081  0.88672881  0.61742557
   0.25297039 -0.01407895  0.25644198
   0.72925642 -0.00006921  0.26034095
   0.24806363  0.50187935  0.25048327
   0.74829009  0.49600647  0.25706193
   0.23354317  0.00681687  0.77036071
   0.75448769  0.01245410  0.75039361
   0.25545706  0.49363606  0.74374593
   0.73467256  0.50303542  0.76381743
   0.14539135  0.12498784  0.11460472
   0.61670192  0.12620172  0.11737278
   0.10885869  0.62579100  0.13024036
   0.64097406  0.63403646  0.12004263
   0.12412489  0.11882731  0.61783525
   0.63297981  0.14881983  0.62311899
   0.12981713  0.62649591  0.62568803
   0.62492285  0.63252761  0.62140123
   0.26292640  0.26119341 -0.01010355
   0.73679987  0.25324288 -0.00143615
   0.24441344  0.75177563 -0.00373251
   0.75948111  0.76768790  0.00654110
   0.25228153  0.25021320  0.49619227
   0.75248979  0.26689824  0.48876241
   0.26069822  0.74213279  0.49392987
   0.75177954  0.74398349  0.49353878
   0.13051575  0.36487891  0.36477459
   0.62243621  0.37122318  0.36811552
   0.12861314  0.84395444  0.35667443
   0.61235639  0.88056767  0.38696275
   0.13132591  0.37480494  0.87052091
   0.61829293  0.36494068  0.87159118
   0.11267521  0.86781238  0.87439042
   0.64304772  0.87421961  0.86333322
si_2x2x2                                
           1
    10.861800    0.000000    0.000000
     0.000000   10.861800    0.000000
     0.000000    0.000000   10.861800
   Si
  64
Direct configuration=    12
   0.00247654 -0.00071927  1.01308880
   0.51214512  0.99781514  0.98742668
   0.99324923  0.49134212 -0.01235439
   0.50563049  0.50094710  1.00495989
   0.00437850  0.97854544  0.47690270
   0.48877259  0.01026237  0.51255650
   0.01299196  0.47856374  0.51150444
   0.50158011  0.49939614  0.49354976
   0.37806919  0.12738436  0.37269154
   0.88789188  0.12293211  0.36718474
   0.38185402  0.62077996  0.36444014
   0.87055310  0.59331758  0.39685387
   0.38309126  0.11514825  0.87987837
   0.86965500  0.12425567  0.88497599
   0.37549397  0.62454604  0.88023463
   0.87752836  0.64305799  0.88060768
   0.00323653  0.25197864  0.23548410
   0.49739517  0.25394775  0.25555873
   0.97498153  0.73296050  0.26208265
   0.50794484  0.74986946  0.24420088