LAMMPS (29 Aug 2024)
OMP_NUM_THREADS environment is not set. Defaulting to 1 thread. (src/comm.cpp:98)
  using 1 OpenMP thread(s) per MPI task

# ----------------------- set up calc -------------------------

### units
atom_style      atomic
units           metal

### periodicity
dimension       3
boundary        p p p
processors      * * *

### read structure
read_data	si_12x12x12.supercell
Reading data file ...
  orthogonal box = (0 0 0) to (65.172 65.172 65.172)
  1 by 1 by 1 MPI processor grid
  reading atoms ...
  13824 atoms
  read_data CPU = 0.016 seconds

### potential
pair_style      tersoff
pair_coeff      * * SiCGe.tersoff Si(D)
Reading tersoff potential file SiCGe.tersoff with DATE: 2009-03-18

### timestep and temp
timestep        0.001
variable        T equal 300

### what to print and how often
thermo_style    custom step temp pe etotal press pxx pyy pzz lx ly lz fmax fnorm
thermo          500

dump            TRJ all custom 500 sim.lammpstrj id type x y z
dump_modify     TRJ sort id

# -------------------- equilibration ------------------------

### NVT thermalization
velocity        all create ${T} 123456 mom yes rot yes dist gaussian
velocity        all create 300 123456 mom yes rot yes dist gaussian
fix             NVT all nvt temp ${T} ${T} $(dt*100) tchain 10
fix             NVT all nvt temp 300 ${T} $(dt*100) tchain 10
fix             NVT all nvt temp 300 300 $(dt*100) tchain 10
fix             NVT all nvt temp 300 300 0.10000000000000000555 tchain 10
run             10000

CITE-CITE-CITE-CITE-CITE-CITE-CITE-CITE-CITE-CITE-CITE-CITE-CITE

Your simulation uses code contributions which should be cited:

- Type Label Framework: https://doi.org/10.1021/acs.jpcb.3c08419

@Article{Gissinger24,
 author = {Jacob R. Gissinger, Ilia Nikiforov, Yaser Afshar, Brendon Waters, Moon-ki Choi, Daniel S. Karls, Alexander Stukowski, Wonpil Im, Hendrik Heinz, Axel Kohlmeyer, and Ellad B. Tadmor},
 title = {Type Label Framework for Bonded Force Fields in LAMMPS},
 journal = {J. Phys. Chem. B},
 year =    2024,
 volume =  128,
 number =  13,
 pages =   {3282–-3297}
}

CITE-CITE-CITE-CITE-CITE-CITE-CITE-CITE-CITE-CITE-CITE-CITE-CITE

Neighbor list info ...
  update: every = 1 steps, delay = 0 steps, check = yes
  max neighbors/atom: 2000, page size: 100000
  master list distance cutoff = 5
  ghost atom cutoff = 5
  binsize = 2.5, bins = 27 27 27
  1 neighbor lists, perpetual/occasional/extra = 1 0 0
  (1) pair tersoff, perpetual
      attributes: full, newton on
      pair build: full/bin/atomonly
      stencil: full/bin/3d
      bin: standard
Per MPI rank memory allocation (min/avg/max) = 6.91 | 6.91 | 6.91 Mbytes
   Step          Temp          PotEng         TotEng         Press           Pxx            Pyy            Pzz             Lx             Ly             Lz            Fmax          Fnorm     
         0   300           -63999.495     -63463.467      2611.7864      2618.5834      2630.8791      2585.8967      65.172         65.172         65.172         8.4710017e-14  7.5304798e-12
       500   174.10023     -63641.518     -63330.442      4111.894       4108.2989      4138.1759      4089.2072      65.172         65.172         65.172         2.1932808      107.86908    
      1000   231.11073     -63600.336     -63187.396      4632.3314      4655.5319      4647.4628      4593.9994      65.172         65.172         65.172         2.4267404      110.37799    
      1500   248.91869     -63501.945     -63057.186      5425.8875      5453.3472      5388.7592      5435.556       65.172         65.172         65.172         2.6799425      124.32426    
      2000   284.94141     -63471.141     -62962.019      5753.4467      5732.1626      5808.2339      5719.9435      65.172         65.172         65.172         2.6416983      127.58866    
      2500   303.75291     -63462.003     -62919.268      6221.2289      6188.6181      6271.6033      6203.4653      65.172         65.172         65.172         2.6181331      130.71146    
      3000   298.77846     -63458.281     -62924.435      6036.1637      6003.2057      6046.5349      6058.7505      65.172         65.172         65.172         2.6579932      129.65758    
      3500   313.4081      -63475.153     -62915.167      6015.1728      6042.02        5985.5043      6017.9942      65.172         65.172         65.172         2.759927       128.10822    
      4000   302.45931     -63452.888     -62912.465      5992.6757      5996.8514      5980.0853      6001.0904      65.172         65.172         65.172         2.7214656      129.74644    
      4500   301.98431     -63462.771     -62923.197      6006.7508      6073.9455      5975.7953      5970.5117      65.172         65.172         65.172         2.596396       129.25222    
      5000   289.81914     -63440.64      -62922.802      6086.8839      6068.2599      6045.1831      6147.2085      65.172         65.172         65.172         3.0430203      132.29324    
      5500   297.21749     -63450.579     -62919.522      6071.4228      6079.4642      6045.2217      6089.5826      65.172         65.172         65.172         3.1221569      130.55365    
      6000   300.82899     -63457.359     -62919.849      6113.813       6106.1704      6154.4869      6080.7816      65.172         65.172         65.172         2.4865831      130.05486    
      6500   302.59943     -63463.033     -62922.36       5996.3489      6009.3418      5977.4532      6002.2515      65.172         65.172         65.172         2.7778792      129.37081    
      7000   307.43012     -63479.188     -62929.883      6062.1707      6071.0319      6071.8742      6043.6061      65.172         65.172         65.172         2.5010557      127.56181    
      7500   298.96426     -63459.417     -62925.239      5979.0076      6036.0701      5966.7476      5934.205       65.172         65.172         65.172         2.7075108      129.59374    
      8000   298.1303      -63453.642     -62920.954      6044.0463      6001.5074      6055.3839      6075.2475      65.172         65.172         65.172         2.7164776      130.23754    
      8500   300.06487     -63451.458     -62915.313      6033.378       6055.6351      6057.0065      5987.4923      65.172         65.172         65.172         2.6397483      130.19206    
      9000   295.80981     -63450.678     -62922.135      5975.4192      5961.2261      5945.8919      6019.1394      65.172         65.172         65.172         2.8798695      129.95168    
      9500   297.68424     -63464.493     -62932.602      5996.3778      6006.2302      6009.6282      5973.2749      65.172         65.172         65.172         2.6041994      129.13273    
     10000   298.55169     -63463.59      -62930.149      5967.2767      5925.8938      5962.9371      6012.9992      65.172         65.172         65.172         2.7258459      129.11698    
Loop time of 112.203 on 1 procs for 10000 steps with 13824 atoms

Performance: 7.700 ns/day, 3.117 hours/ns, 89.124 timesteps/s, 1.232 Matom-step/s
99.9% CPU use with 1 MPI tasks x 1 OpenMP threads

MPI task timing breakdown:
Section |  min time  |  avg time  |  max time  |%varavg| %total
---------------------------------------------------------------
Pair    | 110.83     | 110.83     | 110.83     |   0.0 | 98.78
Neigh   | 0          | 0          | 0          |   0.0 |  0.00
Comm    | 0.16658    | 0.16658    | 0.16658    |   0.0 |  0.15
Output  | 0.11891    | 0.11891    | 0.11891    |   0.0 |  0.11
Modify  | 0.95482    | 0.95482    | 0.95482    |   0.0 |  0.85
Other   |            | 0.1293     |            |       |  0.12

Nlocal:          13824 ave       13824 max       13824 min
Histogram: 1 0 0 0 0 0 0 0 0 0
Nghost:           6993 ave        6993 max        6993 min
Histogram: 1 0 0 0 0 0 0 0 0 0
Neighs:              0 ave           0 max           0 min
Histogram: 1 0 0 0 0 0 0 0 0 0
FullNghs:       387072 ave      387072 max      387072 min
Histogram: 1 0 0 0 0 0 0 0 0 0

Total # of neighbors = 387072
Ave neighs/atom = 28
Neighbor list builds = 0
Dangerous builds = 0
unfix           NVT

### NVE equlibration (de-correlate from thermostats)
fix             NVE all nve
run             10000
Per MPI rank memory allocation (min/avg/max) = 9.624 | 9.624 | 9.624 Mbytes
   Step          Temp          PotEng         TotEng         Press           Pxx            Pyy            Pzz             Lx             Ly             Lz            Fmax          Fnorm     
     10000   298.55169     -63463.59      -62930.149      5967.2767      5925.8938      5962.9371      6012.9992      65.172         65.172         65.172         2.7258459      129.11698    
     10500   300.63488     -63467.309     -62930.146      6045.8101      5965.2276      6107.0652      6065.1375      65.172         65.172         65.172         2.8995506      129.88744    
     11000   292.9007      -63453.484     -62930.14       6010.9885      6037.4833      5956.8438      6038.6384      65.172         65.172         65.172         2.7503475      129.88329    
     11500   292.73128     -63453.186     -62930.145      5911.3547      5907.7693      5946.3143      5879.9805      65.172         65.172         65.172         2.705389       129.88499    
     12000   301.91368     -63469.6       -62930.151      6019.7436      6027.0958      6010.7623      6021.3726      65.172         65.172         65.172         2.8960401      129.31882    
     12500   294.42013     -63456.204     -62930.145      5950.2223      5918.5042      6000.0988      5932.064       65.172         65.172         65.172         2.6897932      129.90682    
     13000   301.29877     -63468.5       -62930.15       6034.9551      6107.2166      5933.957       6063.6916      65.172         65.172         65.172         2.7816693      129.31554    
     13500   298.68523     -63463.825     -62930.145      6081.5961      6106.4714      6034.8774      6103.4394      65.172         65.172         65.172         2.7936766      130.00689    
     14000   293.85111     -63455.184     -62930.141      5986.1749      5990.8622      5977.6968      5989.9658      65.172         65.172         65.172         2.8551562      130.01411    
     14500   303.08894     -63471.703     -62930.155      6035.561       5998.8302      6023.2338      6084.6191      65.172         65.172         65.172         2.864086       129.0496     
     15000   288.46305     -63445.553     -62930.138      5868.3181      5907.0114      5870.2565      5827.6864      65.172         65.172         65.172         2.5472814      130.65158    
     15500   298.81097     -63464.052     -62930.148      6037.8428      6025.8295      6038.7866      6048.9122      65.172         65.172         65.172         3.0391189      129.70892    
     16000   295.63727     -63458.374     -62930.14       6036.8431      6089.1295      6039.994       5981.4057      65.172         65.172         65.172         2.6963754      130.44141    
     16500   300.78584     -63467.58      -62930.147      6085.4551      6111.2564      6109.4894      6035.6194      65.172         65.172         65.172         2.7478604      129.61306    
     17000   295.88088     -63458.811     -62930.142      6017.2246      6008.2799      6028.6036      6014.7902      65.172         65.172         65.172         2.721253       130.35765    
     17500   297.8862      -63462.402     -62930.15       5990.6076      5938.9845      6034.8558      5997.9825      65.172         65.172         65.172         2.8370268      129.84432    
     18000   297.74357     -63462.14      -62930.143      6081.4213      6092.4014      6050.2315      6101.631       65.172         65.172         65.172         2.6082248      130.34408    
     18500   296.87843     -63460.603     -62930.151      5960.2554      5947.4231      6003.41        5929.9331      65.172         65.172         65.172         2.5325974      129.56136    
     19000   303.81003     -63472.99      -62930.153      6112.6682      6088.1159      6136.4508      6113.4378      65.172         65.172         65.172         2.9719731      129.29635    
     19500   296.01571     -63459.057     -62930.147      6010.1134      5959.0723      6072.9531      5998.3147      65.172         65.172         65.172         2.9038643      129.82964    
     20000   295.86647     -63458.783     -62930.14       6061.7513      6029.8023      6095.9509      6059.5006      65.172         65.172         65.172         3.0052538      130.4873     
Loop time of 113.091 on 1 procs for 10000 steps with 13824 atoms

Performance: 7.640 ns/day, 3.141 hours/ns, 88.424 timesteps/s, 1.222 Matom-step/s
99.9% CPU use with 1 MPI tasks x 1 OpenMP threads

MPI task timing breakdown:
Section |  min time  |  avg time  |  max time  |%varavg| %total
---------------------------------------------------------------
Pair    | 112.09     | 112.09     | 112.09     |   0.0 | 99.12
Neigh   | 0          | 0          | 0          |   0.0 |  0.00
Comm    | 0.1697     | 0.1697     | 0.1697     |   0.0 |  0.15
Output  | 0.11838    | 0.11838    | 0.11838    |   0.0 |  0.10
Modify  | 0.57613    | 0.57613    | 0.57613    |   0.0 |  0.51
Other   |            | 0.1355     |            |       |  0.12

Nlocal:          13824 ave       13824 max       13824 min
Histogram: 1 0 0 0 0 0 0 0 0 0
Nghost:           6993 ave        6993 max        6993 min
Histogram: 1 0 0 0 0 0 0 0 0 0
Neighs:              0 ave           0 max           0 min
Histogram: 1 0 0 0 0 0 0 0 0 0
FullNghs:       387072 ave      387072 max      387072 min
Histogram: 1 0 0 0 0 0 0 0 0 0

Total # of neighbors = 387072
Ave neighs/atom = 28
Neighbor list builds = 0
Dangerous builds = 0
unfix           NVE

# -------------------- sample the data -----------------------

### vels/pos print frequency
variable	dt_dump equal 24

### print pos to hdf5 file
#dump            POS all h5md ${dt_dump} pos.h5 position species
#dump_modify     POS sort id
dump            pos all custom ${dt_dump} pos.dat id type xu yu zu
dump            pos all custom 24 pos.dat id type xu yu zu
dump_modify     pos sort id

### run to collect pos/vels
fix             NVE all nve
run             60000
Per MPI rank memory allocation (min/avg/max) = 9.624 | 9.624 | 9.624 Mbytes
   Step          Temp          PotEng         TotEng         Press           Pxx            Pyy            Pzz             Lx             Ly             Lz            Fmax          Fnorm     
     20000   295.86647     -63458.783     -62930.14       6061.7513      6029.8023      6095.9509      6059.5006      65.172         65.172         65.172         3.0052538      130.4873     
     20500   298.28544     -63463.11      -62930.145      6066.3014      6102.8564      6041.6196      6054.4282      65.172         65.172         65.172         2.7610824      129.90098    
     21000   293.90293     -63455.273     -62930.138      6051.5783      6042.7676      6055.5526      6056.4147      65.172         65.172         65.172         2.7653627      130.84093    
     21500   297.36661     -63461.471     -62930.148      6012.221       6018.8338      6034.5761      5983.2531      65.172         65.172         65.172         3.0151941      129.71471    
     22000   296.63715     -63460.165     -62930.145      6039.0019      6028.4559      6071.0794      6017.4703      65.172         65.172         65.172         2.8047334      130.08083    
     22500   297.11152     -63461.012     -62930.144      6034.5348      6040.2574      6069.7226      5993.6243      65.172         65.172         65.172         2.7517199      129.97008    
     23000   298.1173      -63462.818     -62930.153      5938.9027      5883.8179      5987.0701      5945.8201      65.172         65.172         65.172         2.7504931      128.78324    
     23500   295.33458     -63457.833     -62930.14       6009.4546      6042.7778      5981.5449      6004.0411      65.172         65.172         65.172         2.9617115      130.50272    
     24000   297.97276     -63462.554     -62930.147      6040.0489      5977.8613      6083.8063      6058.4792      65.172         65.172         65.172         2.9016676      129.60693    
     24500   296.68001     -63460.243     -62930.146      6010.9646      6023.8151      5977.9538      6031.1249      65.172         65.172         65.172         2.7345855      129.73566    
     25000   299.50581     -63465.295     -62930.149      6039.203       6046.0362      5979.1604      6092.4123      65.172         65.172         65.172         2.8285587      129.5382     
     25500   297.70589     -63462.07      -62930.14       6099.1976      6140.2075      6084.1838      6073.2015      65.172         65.172         65.172         3.217538       130.12423    
     26000   295.61016     -63458.328     -62930.143      6017.7716      6059.4967      5980.7375      6013.0806      65.172         65.172         65.172         2.6545036      130.13652    
     26500   299.41904     -63465.137     -62930.146      6028.5797      6046.479       6011.328       6027.9319      65.172         65.172         65.172         2.9483068      129.49655    
     27000   299.71429     -63465.662     -62930.144      6068.259       6058.1235      6022.8448      6123.8087      65.172         65.172         65.172         2.9759529      129.79782    
     27500   296.33963     -63459.629     -62930.14       6011.0193      6004.1854      5971.5106      6057.3619      65.172         65.172         65.172         2.8508562      130.18175    
     28000   296.24853     -63459.467     -62930.141      6002.5734      6018.3007      6019.2394      5970.1801      65.172         65.172         65.172         2.8753024      130.41006    
     28500   298.54318     -63463.579     -62930.153      5979.5537      6000.1476      5976.957       5961.5566      65.172         65.172         65.172         2.6624357      129.07085    
     29000   297.17272     -63461.125     -62930.148      6026.8808      6020.7457      6043.9389      6015.9578      65.172         65.172         65.172         2.6881205      129.73445    
     29500   295.84538     -63458.749     -62930.143      6046.7469      6008.6799      6067.6313      6063.9295      65.172         65.172         65.172         2.5610004      130.19643    
     30000   294.1955      -63455.8       -62930.143      6039.5953      6020.9293      6011.9233      6085.9332      65.172         65.172         65.172         2.8726814      130.22732    
     30500   299.52295     -63465.326     -62930.15       6011.6093      6003.0663      6006.5444      6025.2172      65.172         65.172         65.172         2.7236633      129.41169    
     31000   299.35227     -63465.02      -62930.149      6035.1903      6088.409       6017.0009      6000.1608      65.172         65.172         65.172         3.0006033      129.67741    
     31500   295.86955     -63458.793     -62930.145      6012.9988      6025.5137      5974.5535      6038.9291      65.172         65.172         65.172         2.7583857      130.34954    
     32000   296.93051     -63460.689     -62930.144      6033.6618      6047.4814      6018.5272      6034.9768      65.172         65.172         65.172         2.8885686      130.29927    
     32500   298.50419     -63463.505     -62930.149      5989.8446      5963.4721      5993.9363      6012.1254      65.172         65.172         65.172         3.1980815      129.96275    
     33000   298.18873     -63462.943     -62930.151      6020.968       6010.3151      6028.2778      6024.3111      65.172         65.172         65.172         2.6718697      129.80953    
     33500   299.69427     -63465.637     -62930.154      6012.0358      6023.9877      5996.4168      6015.703       65.172         65.172         65.172         2.7089447      129.50923    
     34000   296.41858     -63459.781     -62930.152      5970.1999      5999.7257      5970.718       5940.1562      65.172         65.172         65.172         2.6852329      129.47389    
     34500   298.06528     -63462.719     -62930.147      6021.7461      6039.6156      6003.8186      6021.8042      65.172         65.172         65.172         2.7368719      129.96696    
     35000   300.58453     -63467.224     -62930.151      6028.6432      6040.4986      6108.1451      5937.286       65.172         65.172         65.172         2.73822        129.27148    
     35500   296.53601     -63459.983     -62930.143      6048.2204      5989.5391      6063.2525      6091.8695      65.172         65.172         65.172         2.8177378      130.18862    
     36000   297.65549     -63461.989     -62930.149      5997.7281      6012.3219      5944.8165      6036.0458      65.172         65.172         65.172         2.5014304      129.2492     
     36500   298.75412     -63463.947     -62930.144      6018.0525      6026.4296      5999.6375      6028.0904      65.172         65.172         65.172         2.6697901      129.99731    
     37000   296.90206     -63460.641     -62930.147      5988.368       6001.8114      6002.8088      5960.4838      65.172         65.172         65.172         2.6238372      129.72111    
     37500   296.63211     -63460.154     -62930.143      6004.44        6027.9664      5990.5966      5994.7569      65.172         65.172         65.172         2.7737151      129.91599    
     38000   299.22454     -63464.792     -62930.148      6012.6867      6065.3519      5988.0539      5984.6541      65.172         65.172         65.172         2.8660951      129.47401    
     38500   297.67532     -63462.024     -62930.149      5999.6823      5989.7252      6028.5155      5980.8063      65.172         65.172         65.172         2.6085406      129.46194    
     39000   297.53095     -63461.763     -62930.146      6004.9637      5955.4151      6054.9405      6004.5356      65.172         65.172         65.172         2.5029112      129.78126    
     39500   298.4309      -63463.366     -62930.141      6030.9145      6012.7235      6055.7477      6024.2724      65.172         65.172         65.172         2.7460509      130.30293    
     40000   297.64701     -63461.973     -62930.148      6030.8939      6052.5851      6057.6524      5982.4441      65.172         65.172         65.172         3.1725432      129.71976    
     40500   297.79332     -63462.233     -62930.147      6019.1415      5974.1022      6049.1648      6034.1576      65.172         65.172         65.172         2.8940264      129.55565    
     41000   294.15009     -63455.714     -62930.138      5998.735       6019.0671      5989.4056      5987.7324      65.172         65.172         65.172         2.7603141      130.60888    
     41500   297.96759     -63462.545     -62930.148      6036.9488      6013.4073      6020.4863      6076.9528      65.172         65.172         65.172         2.7531972      129.55088    
     42000   298.5177      -63463.528     -62930.148      6011.9531      6000.8282      6016.3384      6018.6928      65.172         65.172         65.172         2.9455292      129.39361    
     42500   296.02506     -63459.073     -62930.146      5971.394       5966.6969      5997.0531      5950.4319      65.172         65.172         65.172         3.1229274      129.66419    
     43000   294.80846     -63456.896     -62930.144      5962.424       5940.1636      5971.4882      5975.6202      65.172         65.172         65.172         2.9564755      129.96801    
     43500   299.8574      -63465.923     -62930.149      6040.8858      6027.2487      6033.5093      6061.8992      65.172         65.172         65.172         2.5681186      129.39324    
     44000   295.70452     -63458.493     -62930.14       5995.745       5982.3919      6019.9058      5984.9371      65.172         65.172         65.172         2.8716428      130.2576     
     44500   300.63147     -63467.306     -62930.149      6013.193       6040.9413      5975.7605      6022.8772      65.172         65.172         65.172         2.7212023      129.36599    
     45000   298.24131     -63463.034     -62930.148      5968.4345      5961.0205      5985.6699      5958.6129      65.172         65.172         65.172         2.6929759      129.45523    
     45500   297.99513     -63462.592     -62930.145      6023.0894      6040.6242      6003.4464      6025.1974      65.172         65.172         65.172         2.7014672      129.89384    
     46000   294.32614     -63456.031     -62930.14       5999.4314      5975.8593      6038.0064      5984.4286      65.172         65.172         65.172         3.015377       130.30701    
     46500   298.63282     -63463.733     -62930.147      6019.8337      6077.2545      5979.893       6002.3538      65.172         65.172         65.172         2.8247494      129.76029    
     47000   298.92144     -63464.249     -62930.147      5999.6293      6026.7837      6002.1535      5969.9507      65.172         65.172         65.172         2.8364163      129.78059    
     47500   294.95239     -63457.155     -62930.145      5981.0339      5959.9754      6022.7572      5960.369       65.172         65.172         65.172         2.5780594      130.1552     
     48000   298.063       -63462.714     -62930.146      6026.1868      5991.2254      6018.4937      6068.8412      65.172         65.172         65.172         2.5893534      129.80073    
     48500   297.14011     -63461.065     -62930.146      5996.4492      5979.0816      6018.5083      5991.7576      65.172         65.172         65.172         2.543714       129.81025    
     49000   298.65284     -63463.768     -62930.146      6022.779       5949.1897      6042.2885      6076.8588      65.172         65.172         65.172         3.4997303      129.90703    
     49500   298.36126     -63463.248     -62930.148      6003.2067      6003.0885      6022.3705      5984.1611      65.172         65.172         65.172         2.7102737      129.73597    
     50000   298.86595     -63464.15      -62930.147      6005.058       6054.6009      5986.6086      5973.9645      65.172         65.172         65.172         2.9085796      129.71655    
     50500   295.95956     -63458.952     -62930.143      6046.3821      6030.5566      6042.6846      6065.9052      65.172         65.172         65.172         2.6506316      129.89253    
     51000   296.93012     -63460.692     -62930.148      5938.7943      5999.8058      5880.3482      5936.2288      65.172         65.172         65.172         2.8652204      129.50487    
     51500   299.24641     -63464.831     -62930.148      6014.7177      6059.4473      5953.4824      6031.2235      65.172         65.172         65.172         2.6475571      129.53211    
     52000   296.90281     -63460.641     -62930.146      5965.4275      5950.7222      5966.4916      5979.0688      65.172         65.172         65.172         2.9064774      129.69554    
     52500   298.4422      -63463.393     -62930.148      6042.2044      6064.4507      5997.5065      6064.656       65.172         65.172         65.172         2.7367156      129.49443    
     53000   296.53082     -63459.973     -62930.143      6023.4416      6055.4466      5973.1925      6041.6857      65.172         65.172         65.172         2.7562946      130.05589    
     53500   298.53172     -63463.553     -62930.148      6028.5109      6041.094       6004.2778      6040.1608      65.172         65.172         65.172         3.3958283      129.50336    
     54000   300.17963     -63466.498     -62930.149      6008.6086      6014.5796      6020.6075      5990.6388      65.172         65.172         65.172         2.9689362      129.44073    
     54500   297.32879     -63461.404     -62930.148      5961.7233      5997.701       5966.5085      5920.9605      65.172         65.172         65.172         3.1412949      129.51697    
     55000   295.19015     -63457.573     -62930.138      6029.8779      6027.6834      6060.6239      6001.3263      65.172         65.172         65.172         3.1054914      130.53302    
     55500   299.25037     -63464.834     -62930.145      6025.6693      5984.2346      5995.9724      6096.8008      65.172         65.172         65.172         2.8445974      129.94452    
     56000   297.97931     -63462.562     -62930.143      6061.3778      6020.8863      6095.3851      6067.862       65.172         65.172         65.172         2.6741929      129.98171    
     56500   295.31066     -63457.791     -62930.141      6005.3532      6011.5941      5980.9505      6023.5148      65.172         65.172         65.172         2.8068606      129.88469    
     57000   298.58888     -63463.648     -62930.141      6061.1458      6064.7717      6075.7391      6042.9266      65.172         65.172         65.172         2.7059934      130.03189    
     57500   300.73115     -63467.484     -62930.149      6043.267       6002.0374      6115.0253      6012.7382      65.172         65.172         65.172         2.7730926      129.50445    
     58000   299.59093     -63465.446     -62930.148      6014.0455      5977.9784      6051.6695      6012.4886      65.172         65.172         65.172         2.7815351      129.44319    
     58500   297.71901     -63462.097     -62930.144      6036.7671      6035.7515      6003.2198      6071.3299      65.172         65.172         65.172         2.8538859      129.71633    
     59000   298.54459     -63463.583     -62930.155      5919.9726      5929.1417      5944.9193      5885.8568      65.172         65.172         65.172         2.827024       128.7769     
     59500   295.04006     -63457.304     -62930.137      6041.909       6043.2348      6060.2711      6022.2212      65.172         65.172         65.172         2.7328125      130.28467    
     60000   298.50134     -63463.503     -62930.151      6022.5133      5998.4763      6041.3481      6027.7155      65.172         65.172         65.172         3.0397391      129.38164    
     60500   295.25971     -63457.702     -62930.143      6005.6837      6030.722       5972.6033      6013.7258      65.172         65.172         65.172         2.6392647      130.13038    
     61000   297.16233     -63461.103     -62930.144      6018.9448      6041.7815      6022.6218      5992.4311      65.172         65.172         65.172         2.7336067      129.89273    
     61500   298.18071     -63462.92      -62930.142      6032.2338      6059.7336      6015.641       6021.3268      65.172         65.172         65.172         2.6629699      130.33529    
     62000   297.60736     -63461.896     -62930.142      6033.3571      6077.1801      5979.7508      6043.1403      65.172         65.172         65.172         2.8477369      130.18785    
     62500   302.27732     -63470.249     -62930.151      6055.5537      6072.8382      6030.4401      6063.3829      65.172         65.172         65.172         2.7377509      129.50074    
     63000   298.10899     -63462.799     -62930.149      6007.36        6052.1423      5997.8039      5972.1339      65.172         65.172         65.172         2.6423964      129.45883    
     63500   295.61674     -63458.343     -62930.146      5981.1919      5961.4019      6011.5771      5970.5968      65.172         65.172         65.172         2.8863239      129.71486    
     64000   298.25447     -63463.06      -62930.15       5997.6311      6026.0966      6017.8502      5948.9466      65.172         65.172         65.172         2.7362483      129.46209    
     64500   297.3154      -63461.372     -62930.14       6091.8741      6100.1884      6093.3817      6082.0522      65.172         65.172         65.172         2.7292153      130.41352    
     65000   299.0537      -63464.485     -62930.147      6084.3477      6035.9165      6076.022       6141.1047      65.172         65.172         65.172         3.0534982      129.88076    
     65500   298.4728      -63463.449     -62930.149      6021.1386      5999.5585      6032.8429      6031.0144      65.172         65.172         65.172         3.0345731      129.72201    
     66000   299.53929     -63465.355     -62930.15       6057.3616      6054.7826      6034.971       6082.3311      65.172         65.172         65.172         2.6754991      129.76982    
     66500   299.10669     -63464.586     -62930.154      5990.346       5928.4075      6072.326       5970.3047      65.172         65.172         65.172         2.702078       129.25087    
     67000   296.97526     -63460.766     -62930.142      6054.4519      6024.3108      6041.4039      6097.6411      65.172         65.172         65.172         2.6965562      130.40226    
     67500   299.1619      -63464.682     -62930.15       6017.7538      5989.8265      6059.6416      6003.7934      65.172         65.172         65.172         2.8214613      129.55163    
     68000   294.65512     -63456.616     -62930.137      6084.2647      6156.6895      6013.1344      6082.97        65.172         65.172         65.172         2.6400053      130.82133    
     68500   298.3884      -63463.293     -62930.143      6058.2946      6079.372       6015.2334      6080.2782      65.172         65.172         65.172         2.5791077      129.69355    
     69000   296.04016     -63459.097     -62930.143      6020.3177      5994.855       6019.3908      6046.7073      65.172         65.172         65.172         2.8589877      129.89534    
     69500   297.49335     -63461.697     -62930.147      6033.1954      6027.514       6028.8284      6043.2438      65.172         65.172         65.172         2.8488096      129.60453    
     70000   297.72122     -63462.107     -62930.149      5979.2607      6030.7807      5980.2671      5926.7344      65.172         65.172         65.172         2.8394145      129.53169    
     70500   298.98771     -63464.373     -62930.153      6015.0622      6091.0034      5961.7653      5992.4178      65.172         65.172         65.172         2.7961998      129.29713    
     71000   298.60915     -63463.69      -62930.146      6065.6679      6100.0899      6054.4418      6042.4721      65.172         65.172         65.172         3.4859894      130.05344    
     71500   299.45793     -63465.208     -62930.147      6059.9766      6092.1799      6059.7807      6027.9693      65.172         65.172         65.172         2.942883       130.03164    
     72000   297.58551     -63461.858     -62930.143      6112.8288      6125.0756      6076.4957      6136.9151      65.172         65.172         65.172         2.5868451      130.33587    
     72500   296.43568     -63459.804     -62930.143      6079.9116      6055.514       6095.6838      6088.5369      65.172         65.172         65.172         2.9897936      130.48457    
     73000   296.01806     -63459.058     -62930.144      6074.7221      6067.1378      6048.531       6108.4975      65.172         65.172         65.172         2.8178656      130.40329    
     73500   299.47475     -63465.238     -62930.148      6112.5824      6110.88        6082.4017      6144.4656      65.172         65.172         65.172         2.6858441      130.04538    
     74000   298.77241     -63463.986     -62930.15       6011.4598      5974.1793      5993.2444      6066.9557      65.172         65.172         65.172         2.6997096      129.48429    
     74500   297.78719     -63462.221     -62930.146      6031.7993      6029.8263      6059.3801      6006.1913      65.172         65.172         65.172         2.6665721      129.34447    
     75000   299.91676     -63466.027     -62930.147      6046.2427      6043.8787      6028.5325      6066.3169      65.172         65.172         65.172         2.817315       129.6404     
     75500   297.31182     -63461.372     -62930.146      6017.1868      6058.842       6013.6195      5979.099       65.172         65.172         65.172         2.7310734      129.60824    
     76000   300.3765      -63466.852     -62930.151      6019.7458      5994.2421      5974.8499      6090.1454      65.172         65.172         65.172         3.1626602      129.1627     
     76500   298.4123      -63463.342     -62930.15       6073.2602      6092.4361      6045.1778      6082.1667      65.172         65.172         65.172         2.7819465      129.80578    
     77000   297.42138     -63461.572     -62930.151      6004.6735      5984.268       6028.7121      6001.0403      65.172         65.172         65.172         2.8909146      129.25484    
     77500   299.37006     -63465.046     -62930.143      6110.8874      6109.4575      6111.0533      6112.1514      65.172         65.172         65.172         2.8981837      130.25786    
     78000   296.30234     -63459.564     -62930.142      6046.268       5986.4144      6111.0061      6041.3835      65.172         65.172         65.172         3.0664332      130.04268    
     78500   298.28088     -63463.105     -62930.148      6037.6764      6025.3671      6026.28        6061.3822      65.172         65.172         65.172         2.7905463      129.45129    
     79000   296.04852     -63459.109     -62930.14       6087.5161      6118.0248      6058.0773      6086.4463      65.172         65.172         65.172         2.8086217      130.41836    
     79500   298.69477     -63463.843     -62930.147      6041.6658      6085.5059      6067.3692      5972.1222      65.172         65.172         65.172         2.6045179      129.68694    
     80000   299.42372     -63465.151     -62930.152      6021.0043      6039.0927      5996.0319      6027.8882      65.172         65.172         65.172         2.7325112      129.50191    
Loop time of 697.782 on 1 procs for 60000 steps with 13824 atoms

Performance: 7.429 ns/day, 3.230 hours/ns, 85.987 timesteps/s, 1.189 Matom-step/s
99.6% CPU use with 1 MPI tasks x 1 OpenMP threads

MPI task timing breakdown:
Section |  min time  |  avg time  |  max time  |%varavg| %total
---------------------------------------------------------------
Pair    | 677.04     | 677.04     | 677.04     |   0.0 | 97.03
Neigh   | 0          | 0          | 0          |   0.0 |  0.00
Comm    | 1.0659     | 1.0659     | 1.0659     |   0.0 |  0.15
Output  | 15.36      | 15.36      | 15.36      |   0.0 |  2.20
Modify  | 3.4799     | 3.4799     | 3.4799     |   0.0 |  0.50
Other   |            | 0.8396     |            |       |  0.12

Nlocal:          13824 ave       13824 max       13824 min
Histogram: 1 0 0 0 0 0 0 0 0 0
Nghost:           6993 ave        6993 max        6993 min
Histogram: 1 0 0 0 0 0 0 0 0 0
Neighs:              0 ave           0 max           0 min
Histogram: 1 0 0 0 0 0 0 0 0 0
FullNghs:       387072 ave      387072 max      387072 min
Histogram: 1 0 0 0 0 0 0 0 0 0

Total # of neighbors = 387072
Ave neighs/atom = 28
Neighbor list builds = 0
Dangerous builds = 0
unfix           NVE






Total wall time: 0:15:23
