LAMMPS (29 Sep 2021 - Update 2)
  using 1 OpenMP thread(s) per MPI task

# ----------------------- set up calc -------------------------

### units
atom_style      atomic
units           metal

### periodicity
dimension       3
boundary        p p p
processors      * * *

### read structure
read_data	si_12x12x12.supercell
Reading data file ...
  orthogonal box = (0.0000000 0.0000000 0.0000000) to (65.172000 65.172000 65.172000)
  2 by 2 by 3 MPI processor grid
  reading atoms ...
  13824 atoms
  read_data CPU = 0.011 seconds

### potential
pair_style      tersoff
pair_coeff      * * SiCGe.tersoff Si(D)
Reading tersoff potential file SiCGe.tersoff with DATE: 2009-03-18

### timestep and temp
timestep        0.001
variable        T equal 300

### what to print and how often
thermo_style    custom step temp pe etotal press pxx pyy pzz lx ly lz fmax fnorm
thermo          500

dump            TRJ all custom 500 sim.lammpstrj id type x y z
dump_modify     TRJ sort id

# -------------------- equilibration ------------------------

### NVT thermalization
velocity        all create ${T} 123456 mom yes rot yes dist gaussian
velocity        all create 300 123456 mom yes rot yes dist gaussian
fix             NVT all nvt temp ${T} ${T} $(dt*100) tchain 10
fix             NVT all nvt temp 300 ${T} $(dt*100) tchain 10
fix             NVT all nvt temp 300 300 $(dt*100) tchain 10
fix             NVT all nvt temp 300 300 0.10000000000000000555 tchain 10
run             100000
Neighbor list info ...
  update every 1 steps, delay 10 steps, check yes
  max neighbors/atom: 2000, page size: 100000
  master list distance cutoff = 5
  ghost atom cutoff = 5
  binsize = 2.5, bins = 27 27 27
  1 neighbor lists, perpetual/occasional/extra = 1 0 0
  (1) pair tersoff, perpetual
      attributes: full, newton on
      pair build: full/bin/atomonly
      stencil: full/bin/3d
      bin: standard
Per MPI rank memory allocation (min/avg/max) = 4.531 | 4.531 | 4.532 Mbytes
Step Temp PotEng TotEng Press Pxx Pyy Pzz Lx Ly Lz Fmax Fnorm 
       0          300   -63999.495   -63463.467    2611.7864    2618.5834    2630.8791    2585.8967       65.172       65.172       65.172 7.7951534e-14 7.511704e-12 
     500    174.10023   -63641.518   -63330.442     4111.894    4108.2989    4138.1759    4089.2072       65.172       65.172       65.172    2.1932808    107.86908 
    1000    231.11073   -63600.336   -63187.396    4632.3314    4655.5319    4647.4628    4593.9994       65.172       65.172       65.172    2.4267404    110.37799 
    1500    248.91869   -63501.945   -63057.186    5425.8875    5453.3472    5388.7592     5435.556       65.172       65.172       65.172    2.6799425    124.32426 
    2000    284.94141   -63471.141   -62962.019    5753.4467    5732.1626    5808.2339    5719.9435       65.172       65.172       65.172    2.6416983    127.58866 
    2500    303.75291   -63462.003   -62919.268    6221.2289    6188.6181    6271.6033    6203.4653       65.172       65.172       65.172    2.6181331    130.71146 
    3000    298.77846   -63458.281   -62924.435    6036.1637    6003.2057    6046.5349    6058.7505       65.172       65.172       65.172    2.6579932    129.65758 
    3500     313.4081   -63475.153   -62915.167    6015.1728      6042.02    5985.5043    6017.9942       65.172       65.172       65.172     2.759927    128.10822 
    4000    302.45931   -63452.888   -62912.465    5992.6757    5996.8514    5980.0853    6001.0904       65.172       65.172       65.172    2.7214656    129.74644 
    4500    301.98431   -63462.771   -62923.197    6006.7508    6073.9455    5975.7953    5970.5117       65.172       65.172       65.172     2.596396    129.25222 
    5000    289.81914    -63440.64   -62922.802    6086.8839    6068.2599    6045.1831    6147.2085       65.172       65.172       65.172    3.0430203    132.29324 
    5500    297.21749   -63450.579   -62919.522    6071.4228    6079.4642    6045.2217    6089.5826       65.172       65.172       65.172    3.1221569    130.55365 
    6000    300.82899   -63457.359   -62919.849     6113.813    6106.1704    6154.4869    6080.7816       65.172       65.172       65.172    2.4865831    130.05486 
    6500    302.59943   -63463.033    -62922.36    5996.3489    6009.3418    5977.4532    6002.2515       65.172       65.172       65.172    2.7778792    129.37081 
    7000    307.43012   -63479.188   -62929.883    6062.1707    6071.0319    6071.8742    6043.6061       65.172       65.172       65.172    2.5010557    127.56181 
    7500    298.96426   -63459.417   -62925.239    5979.0076    6036.0701    5966.7476     5934.205       65.172       65.172       65.172    2.7075108    129.59374 
    8000     298.1303   -63453.642   -62920.954    6044.0463    6001.5074    6055.3839    6075.2475       65.172       65.172       65.172    2.7164777    130.23754 
    8500    300.06487   -63451.458   -62915.313     6033.378    6055.6352    6057.0065    5987.4924       65.172       65.172       65.172    2.6397483    130.19206 
    9000    295.80986   -63450.677   -62922.135      5975.42     5961.227    5945.8928    6019.1403       65.172       65.172       65.172    2.8798697    129.95169 
    9500    297.68414   -63464.493   -62932.602    5996.3761    6006.2286    6009.6266    5973.2733       65.172       65.172       65.172     2.604199    129.13271 
   10000    298.55269   -63463.588   -62930.145    5967.2947    5925.9118    5962.9551    6013.0174       65.172       65.172       65.172    2.7258499    129.11719 
   10500    302.23384   -63464.384   -62924.364    6075.7522    5995.0174    6137.1101    6095.1292       65.172       65.172       65.172    2.9102964    130.24895 
   11000    296.51773   -63446.911   -62917.104     6076.061    6103.1755    6021.5698    6103.4377       65.172       65.172       65.172    2.7625616    130.65124 
   11500    294.74289   -63449.554   -62922.918    5948.1858    5944.6128    5983.1127     5916.832       65.172       65.172       65.172     2.709472    130.32616 
   12000     303.1175   -63467.351   -62925.752    6042.3595    6049.7802    6033.6671    6043.6313       65.172       65.172       65.172    2.9027948    129.59302 
   12500    296.20735   -63452.764   -62923.511    5982.9711    5950.3083     6033.646    5964.9589       65.172       65.172       65.172    2.6861213    130.31349 
   13000    304.49338   -63462.635   -62918.577    6094.4084     6167.749    5993.0273    6122.4488       65.172       65.172       65.172    2.8187926    130.02151 
   13500     302.4868   -63457.094   -62916.621    6152.6952    6177.3898     6106.408    6174.2878       65.172       65.172       65.172    2.8018169    130.82838 
   14000    296.01788   -63451.008   -62922.095    6026.7409    6029.4779    6018.5091    6032.2358       65.172       65.172       65.172    2.8539697    130.51033 
   14500    304.09769   -63469.924   -62926.573    6055.1658    6019.9767    6040.4029    6105.1176       65.172       65.172       65.172    2.8861838    129.27642 
   15000    287.62158   -63447.464   -62933.553    5850.5446    5888.3558    5853.5572    5809.7206       65.172       65.172       65.172    2.5360823    130.42627 
   15500    299.34667   -63462.181   -62927.319    6048.2808    6036.4837    6050.7294    6057.6293       65.172       65.172       65.172    3.0685427    129.88245 
   16000    297.80575    -63453.99   -62921.882    6077.0513    6130.2275    6079.4691    6021.4573       65.172       65.172       65.172    2.6920147    130.93647 
   16500    303.85017   -63462.236   -62919.327    6140.6102    6165.8534    6166.3128    6089.6644       65.172       65.172       65.172    2.7475748    130.25858 
   17000    298.68344   -63453.423   -62919.746    6071.4183     6064.197    6080.6888    6069.3692       65.172       65.172       65.172    2.7126111    131.01203 
   17500    297.52681   -63463.043   -62931.433    5980.7649    5928.1208     6024.328    5989.8459       65.172       65.172       65.172     2.833346     129.7399 
   18000    298.76627    -63459.89   -62926.065    6103.1925     6112.891    6074.2076    6122.4789       65.172       65.172       65.172    2.6247697     130.6136 
   18500    298.60474    -63457.66   -62924.124    5991.2356    5978.8796    6034.8039    5960.0234       65.172       65.172       65.172    2.5022966    129.92465 
   19000    306.13386   -63469.183   -62922.195    6156.0672    6130.3503    6183.5885    6154.2628       65.172       65.172       65.172    2.9824992    129.77692 
   19500    299.78244   -63452.932   -62917.292    6081.8912    6031.9405    6146.5846    6067.1483       65.172       65.172       65.172    2.9042328    130.61799 
   20000    298.81252   -63452.919   -62919.012    6116.1497     6082.307    6147.2006    6118.9415       65.172       65.172       65.172    3.0493369    131.15944 
   20500    300.09522   -63459.285   -62923.086    6101.1434    6139.1437      6080.62    6083.6666       65.172       65.172       65.172    2.7598777    130.32267 
   21000     298.2307   -63447.478    -62914.61    6130.7184    6126.8595    6130.9851    6134.3105       65.172       65.172       65.172    2.7954521    131.77936 
   21500    299.33995   -63458.157   -62923.308    6046.8042     6049.806    6072.7036    6017.9031       65.172       65.172       65.172    2.9693061    130.13399 
   22000    299.22899   -63455.526   -62920.875    6086.7618    6077.1361    6119.3615    6063.7877       65.172       65.172       65.172    2.7895139    130.66025 
   22500    300.25576   -63455.097   -62918.611    6100.0152    6110.2988    6134.6773    6055.0695       65.172       65.172       65.172    2.7495239    130.71039 
   23000    302.25379   -63455.323   -62915.267    6017.8204     5955.424    6065.7049    6032.3322       65.172       65.172       65.172    2.7656968     129.7192 
   23500    300.26992   -63449.978   -62913.467    6095.4233    6133.7902    6060.4288    6092.0509       65.172       65.172       65.172    2.9578195    131.45796 
   24000    300.37604    -63457.23   -62920.529    6090.1443    6028.8082    6136.2166    6105.4082       65.172       65.172       65.172    2.9363015    130.22218 
   24500    298.04129   -63458.183   -62925.653    6034.0991    6042.7554    6004.6191    6054.9229       65.172       65.172       65.172    2.7974821    129.94173 
   25000    300.86543   -63462.864   -62925.289    6069.0491     6070.858    6013.7257    6122.5636       65.172       65.172       65.172    2.8381637    129.86972 
   25500     300.4214   -63456.968   -62920.186    6152.8568    6194.9475    6138.5017    6125.1212       65.172       65.172       65.172    3.1588051    130.77028 
   26000    299.26989   -63452.298   -62917.573    6084.1194       6120.8    6046.8717    6084.6864       65.172       65.172       65.172    2.7090321    130.86562 
   26500     302.3082   -63459.802   -62919.649    6087.3026    6108.3166    6072.0904    6081.5007       65.172       65.172       65.172    2.9795342    130.15768 
   27000    301.26745   -63461.792   -62923.498    6102.8363    6090.9157    6058.1703    6159.4229       65.172       65.172       65.172    3.0250907    130.28687 
   27500     298.7612   -63454.725   -62920.909    6052.2938    6048.8089    6004.8075    6103.2649       65.172       65.172       65.172    2.9355683     130.6873 
   28000    302.24587   -63448.164   -62908.123    6116.2821    6126.1453    6131.8025    6090.8985       65.172       65.172       65.172     2.878763     131.7853 
   28500    299.69191    -63461.82   -62926.342    6007.8545    6031.9585    6008.5639    5983.0412       65.172       65.172       65.172    2.6692919    129.40564 
   29000    297.72201   -63460.548   -62928.589    6028.9466    6010.6697    6050.6796    6025.4904       65.172       65.172       65.172    2.6264989    129.81182 
   29500    295.50507   -63459.701   -62931.704    6044.4294    6002.3614    6064.2718    6066.6552       65.172       65.172       65.172    2.5782209    130.17954 
   30000    296.55455   -63452.488   -62922.615     6085.947    6063.8672    6061.1316    6132.8423       65.172       65.172       65.172    2.8312557    130.68006 
   30500    302.69945   -63460.271   -62919.419    6076.6208     6074.752    6068.7486    6086.3619       65.172       65.172       65.172    2.7771365    130.09454 
   31000    303.14711   -63459.535   -62917.883    6096.6791    6155.1815    6070.6507    6064.2051       65.172       65.172       65.172    3.0086599    130.34696 
   31500    299.06733    -63452.73   -62918.367    6066.0819    6085.7778    6025.8902    6086.5777       65.172       65.172       65.172    2.7526984     131.0684 
   32000    297.86596   -63456.398   -62924.183    6065.9651      6081.13    6059.6817    6057.0837       65.172       65.172       65.172    2.8529823    130.80371 
   32500    298.93184   -63461.401   -62927.281    6003.5989    5967.4844    6022.7082     6020.604       65.172       65.172       65.172    3.1779442    130.16093 
   33000    298.85278   -63462.734   -62928.755    6036.9404     6035.431    6037.4913    6037.8989       65.172       65.172       65.172     2.732698    129.94599 
   33500    301.79301   -63461.739   -62922.507    6045.7068    6048.4187     6035.532    6053.1696       65.172       65.172       65.172    2.6484513    129.89425 
   34000    301.79414    -63448.62   -62909.386    6084.9591    6129.4914    6073.9617    6051.4243       65.172       65.172       65.172    2.7009097    130.85895 
   34500    299.40032   -63457.228   -62922.271    6064.2982    6090.1763    6042.1959    6060.5225       65.172       65.172       65.172    2.7249854    130.61699 
   35000    301.84896   -63463.243   -62923.911    6053.8868    6060.6103    6142.5297    5958.5203       65.172       65.172       65.172    2.6320523    129.69007 
   35500    298.08528   -63456.884   -62924.276     6097.942    6041.9247    6117.2987    6134.6028       65.172       65.172       65.172    2.7786914    130.70214 
   36000    300.22714   -63454.799   -62918.364    6058.1677    6071.8077    6004.6334     6098.062       65.172       65.172       65.172    2.6502876    130.12475 
   36500    303.58705   -63456.222   -62913.784    6102.8234     6121.929    6080.1818    6106.3594       65.172       65.172       65.172     2.778171    130.92933 
   37000    299.43285   -63454.308   -62919.293    6044.1781    6039.8891    6064.3479    6028.2972       65.172       65.172       65.172      2.64074    130.50337 
   37500    296.79052    -63458.01   -62927.716    6021.0937    6047.3013    6002.4941    6013.4856       65.172       65.172       65.172    2.6228454    130.18822 
   38000    299.19722   -63467.086   -62932.491      6012.93    6059.1083    5977.2034    6002.4784       65.172       65.172       65.172    2.8615035    129.28889 
   38500    298.57705   -63460.058   -62926.571    6016.2268     6002.836    6038.1366    6007.7079       65.172       65.172       65.172    2.5163769    129.65243 
   39000     301.0937   -63458.848   -62920.865    6058.8095    6004.4246    6108.0199    6063.9841       65.172       65.172       65.172    2.5819365    130.13107 
   39500    301.81177   -63456.428   -62917.162    6103.1363    6072.5208     6127.562    6109.3262       65.172       65.172       65.172    2.8807201    131.19347 
   40000    299.46995   -63458.277   -62923.195    6067.3362    6087.6263    6087.8319    6026.5504       65.172       65.172       65.172    3.0576835    130.24685 
   40500    297.39029   -63462.213   -62930.847    6026.2498    5990.3735    6055.4121    6032.9639       65.172       65.172       65.172    3.0314806    129.68655 
   41000    294.98517   -63454.403   -62927.334    6016.0105    6044.4488    5998.2886    6005.2941       65.172       65.172       65.172    2.8282946    130.73581 
   41500    298.44759   -63461.741   -62928.486    6047.8891    6040.9373    6036.9229     6065.807       65.172       65.172       65.172    2.6700514    129.68099 
   42000    299.49382   -63457.715   -62922.591    6057.3919    6058.0834    6053.8823      6060.21       65.172       65.172       65.172    2.9027147    130.17228 
   42500    299.31897   -63455.152    -62920.34    6021.8594    6029.1595    6042.0935    5994.3251       65.172       65.172       65.172    3.1555869    130.21314 
   43000    298.24182   -63450.743   -62917.856    6024.6316    6004.2022    6031.0653    6038.6272       65.172       65.172       65.172     3.222067    130.67592 
   43500    301.45039   -63461.678   -62923.057    6098.1827    6083.5708    6083.6039    6127.3733       65.172       65.172       65.172    2.5084708    130.10528 
   44000    297.42249   -63458.306   -62926.882     6040.775    6025.3681    6066.9778    6029.9793       65.172       65.172       65.172    2.9798471    130.49469 
   44500    301.26738   -63462.412   -62924.119    6051.8026    6063.7744     6017.051    6074.5825       65.172       65.172       65.172     2.704969    129.97563 
   45000    302.15856   -63459.647   -62919.761    6021.7153    6008.6601    6048.8984    6007.5873       65.172       65.172       65.172    2.6371813    129.93607 
   45500    303.89363   -63451.687   -62908.702    6126.5176    6139.8529    6109.5165    6130.1834       65.172       65.172       65.172    2.9085758    131.03053 
   46000    299.02508    -63452.36   -62918.073    6056.6943    6027.1423    6109.9521    6032.9886       65.172       65.172       65.172     2.829374    130.66925 
   46500    300.08272   -63461.444   -62925.267    6066.2168    6117.5515     6020.533    6060.5661       65.172       65.172       65.172    2.8329082    130.27565 
   47000    300.02343   -63458.849   -62922.778    6030.2708    6060.7808    6051.2608    5978.7707       65.172       65.172       65.172    2.8472761    130.34215 
   47500    297.54709   -63450.818   -62919.172    6072.1394     6054.688    6113.0216    6048.7085       65.172       65.172       65.172    2.7031954    131.33181 
   48000    301.45676   -63455.378   -62916.746     6087.322    6033.4839    6092.3134    6136.1686       65.172       65.172       65.172     2.694176    130.51434 
   48500    301.66539   -63453.696   -62914.692    6094.1646    6068.7609    6128.5337    6085.1993       65.172       65.172       65.172    2.5395358     130.7712 
   49000    300.32363   -63458.507     -62921.9    6057.1881    5991.9917    6081.0916     6098.481       65.172       65.172       65.172    3.1062998    130.40991 
   49500    300.73832   -63462.102   -62924.754    6031.9265    6008.1516    6058.1027    6029.5252       65.172       65.172       65.172    2.9411193    130.01119 
   50000    305.22493   -63450.979   -62905.614    6148.8754    6196.1564    6127.3936    6123.0763       65.172       65.172       65.172    2.7809257    131.51808 
   50500    298.61057   -63455.542   -62921.996    6111.3048    6106.9758    6109.5749    6117.3639       65.172       65.172       65.172    2.6199137    130.51422 
   51000      298.672   -63456.718   -62923.062     5972.268    6025.5292    5923.2439     5968.031       65.172       65.172       65.172    2.9144966    129.91181 
   51500    298.96165    -63461.91   -62927.737    6040.2182    6092.9209    5981.9142    6045.8196       65.172       65.172       65.172    2.9301946     130.0556 
   52000    298.61519   -63456.295    -62922.74    6011.7847    6001.0704    6012.0989    6022.1849       65.172       65.172       65.172    2.7287493    130.33538 
   52500    302.77009   -63457.623   -62916.644    6116.0791    6121.0435    6078.0988    6149.0951       65.172       65.172       65.172    2.9957432    130.28586 
   53000    300.79215   -63454.332   -62916.887    6080.9843    6089.0445    6049.7425    6104.1657       65.172       65.172       65.172    2.6159648    130.77322 
   53500     300.8079   -63456.994   -62919.521    6097.2994    6117.1955    6067.8889    6106.8136       65.172       65.172       65.172    3.0803471    130.49459 
   54000    300.75349    -63461.66   -62924.285    6038.5761    6054.0469    6049.9456     6011.736       65.172       65.172       65.172    3.0528561    130.06218 
   54500    300.46461   -63459.892   -62923.033     5995.305    6015.7489    5989.1164    5981.0497       65.172       65.172       65.172    2.8630122    129.77779 
   55000    299.29502    -63450.17     -62915.4    6095.7216    6094.2829    6133.8121    6059.0698       65.172       65.172       65.172    2.9418834     131.3902 
   55500    300.38277   -63457.459   -62920.746    6094.3612    6058.5116    6078.5766    6145.9955       65.172       65.172       65.172     3.185159    130.95421 
   56000    299.67502   -63461.045   -62925.596    6061.7791    5986.3238    6115.2664    6083.7472       65.172       65.172       65.172    2.6013367    130.17392 
   56500    294.96492   -63459.487   -62932.454    5967.0641    5951.9973    5975.4874    5973.7074       65.172       65.172       65.172     2.784586    129.41597 
   57000    302.73412   -63461.059   -62920.144    6117.1824    6101.3121    6164.2184    6086.0166       65.172       65.172       65.172    2.8074221    130.38608 
   57500    304.96898    -63464.05   -62919.143     6117.074    6103.6665    6166.5393    6081.0162       65.172       65.172       65.172    2.8302743    130.28308 
   58000    301.77203   -63461.023   -62921.827    6052.1528    6040.7707    6059.3685    6056.3191       65.172       65.172       65.172    2.8321812    129.87116 
   58500     298.0665   -63461.394    -62928.82    6037.4845    6034.0878    5983.5964    6094.7693       65.172       65.172       65.172    2.9119414    129.75032 
   59000    296.85705   -63465.323    -62934.91     5874.654    5860.3741    5901.3836    5862.2044       65.172       65.172       65.172    2.6898578    128.47908 
   59500     299.1867   -63452.688   -62918.113    6108.2241    6105.8815    6108.3989     6110.392       65.172       65.172       65.172    2.8756878    130.96583 
   60000    303.40255   -63456.757   -62914.649     6098.318    6062.0316    6121.9893    6110.9329       65.172       65.172       65.172    3.1643484    130.28595 
   60500    298.02189   -63454.643   -62922.148    6048.7915    6074.6257    6029.1489    6042.5999       65.172       65.172       65.172    2.5171887    130.46587 
   61000    297.83749   -63460.541   -62928.376    6010.2265    6048.6632    6000.7731     5981.243       65.172       65.172       65.172    3.0324681    129.70292 
   61500    299.33024   -63461.543   -62926.711    6039.0225    6067.9056    6030.5398    6018.6221       65.172       65.172       65.172    2.8548563     130.2329 
   62000    299.24371   -63455.364   -62920.686    6075.2763    6121.6725    6043.8463    6060.3101       65.172       65.172       65.172    3.0506901    130.66709 
   62500     305.5848   -63464.153   -62918.146    6112.1504    6150.7869    6072.0543    6113.6101       65.172       65.172       65.172      2.54272    129.99763 
   63000    295.23072   -63467.565   -62940.058    5964.8595    6037.9571    5966.4293     5890.192       65.172       65.172       65.172    2.6452503    128.99561 
   63500    298.24052   -63454.611   -62921.725    6003.4759    6000.9148    6014.0152    5995.4976       65.172       65.172       65.172    2.8826953    129.78028 
   64000    301.92355   -63459.114   -62919.648    6041.6948    6038.1521    6065.6379    6021.2943       65.172       65.172       65.172    2.7357713    129.91521 
   64500    299.59983    -63458.85   -62923.536    6117.5254     6136.687    6084.8036    6131.0855       65.172       65.172       65.172    2.7150934    130.47247 
   65000    300.19925   -63466.898   -62930.513    6032.8404    6007.6867    6022.3083    6068.5263       65.172       65.172       65.172    2.7023568    129.32573 
   65500    297.42493   -63455.878   -62924.451    6052.6664     6027.143    6077.1234    6053.7327       65.172       65.172       65.172    2.9339296     130.7873 
   66000    303.18782   -63455.941   -62914.216    6125.6723    6131.5034    6089.8135    6155.6999       65.172       65.172       65.172    2.6406989    130.69296 
   66500    303.11303    -63459.51   -62917.919    6047.9177    6016.6909    6120.8798    6006.1823       65.172       65.172       65.172    2.8847446    129.58848 
   67000    297.91102   -63458.348   -62926.051    6078.0477    6032.2412    6065.2716    6136.6303       65.172       65.172       65.172    2.8304682    130.58029 
   67500    299.75865   -63458.647    -62923.05    6056.5013     6033.922     6095.626    6039.9559       65.172       65.172       65.172    3.0397044    129.84134 
   68000    296.51673   -63450.136   -62920.331    6100.0436    6136.5635    6051.5268    6112.0406       65.172       65.172       65.172    2.5619292    131.35171 
   68500    302.26245   -63456.116   -62916.045    6119.9764    6154.0912    6056.1622    6149.6759       65.172       65.172       65.172    2.7817172    130.42847 
   69000    298.82631   -63452.698   -62918.767    6059.8635    6039.1422    6067.6141    6072.8342       65.172       65.172       65.172     2.760406    130.42834 
   69500    301.20867   -63460.468    -62922.28    6057.4684    6030.5265    6072.7982    6069.0807       65.172       65.172       65.172    3.0055642    129.61654 
   70000    299.69315   -63460.993   -62925.513    6002.1332    6033.3558    5969.5733    6003.4705       65.172       65.172       65.172    2.5327655    129.63781 
   70500    299.57279   -63459.461   -62924.195    6014.0578    6072.4222    5968.1231     6001.628       65.172       65.172       65.172    2.7102328    129.54948 
   71000    303.17051   -63462.173   -62920.479    6083.1666    6124.6116     6014.396    6110.4923       65.172       65.172       65.172    3.2093816    129.97617 
   71500    303.66441   -63456.233   -62913.656     6110.789    6159.4736    6116.6215    6056.2717       65.172       65.172       65.172    2.9034518    130.94423 
   72000    302.69078   -63457.925   -62917.088    6146.8339     6161.076     6078.736    6200.6898       65.172       65.172       65.172    2.6255494    130.38352 
   72500    299.21213   -63453.106   -62918.485    6085.6364    6063.0403    6117.6535    6076.2155       65.172       65.172       65.172    2.8886835    130.71949 
   73000    295.28851   -63459.905   -62932.295    6023.3912    6021.7104    6007.1784    6041.2848       65.172       65.172       65.172    3.0018184    129.99202 
   73500    300.25512    -63461.27   -62924.785    6091.8236     6134.584    6049.2688    6091.6179       65.172       65.172       65.172    2.8107461    129.90391 
   74000    301.21633   -63460.008   -62921.806    6049.1551     6015.726    6023.6789    6108.0605       65.172       65.172       65.172    2.6169014    129.75122 
   74500    302.16783   -63457.813   -62917.911    6103.4876    6083.6251    6132.3652    6094.4726       65.172       65.172       65.172    2.8137848    130.29962 
   75000    303.11944   -63463.216   -62921.613    6073.9514    6067.0952     6078.728    6076.0308       65.172       65.172       65.172    2.8159654     129.8285 
   75500    298.33235   -63462.267   -62929.218    6025.2459     6050.783    6012.1078    6012.8471       65.172       65.172       65.172    2.6428995    129.38527 
   76000    299.16931   -63458.486   -62923.941    6064.9573    6044.0483    6052.0459    6098.7777       65.172       65.172       65.172     2.718541    130.29449 
   76500    301.86515   -63455.867   -62916.505    6146.2506    6186.8105    6130.9814    6120.9599       65.172       65.172       65.172    2.7429092    130.90499 
   77000     303.9345   -63453.496   -62910.437    6152.7735    6122.7795    6166.4374    6169.1035       65.172       65.172       65.172     2.683624    130.52748 
   77500    303.04737   -63459.199   -62917.725    6176.5944    6155.4467    6212.6838    6161.6528       65.172       65.172       65.172    2.6776349    130.89134 
   78000    298.84412   -63455.911   -62921.948    6087.1658    6063.9179    6083.8927    6113.6868       65.172       65.172       65.172    2.6523574    130.33857 
   78500    296.84026   -63463.045   -62932.661    6025.1372    6018.5946    5998.2773    6058.5397       65.172       65.172       65.172    2.6311246     129.3593 
   79000    296.68962   -63455.015   -62924.901    6144.1293    6147.8141     6121.373    6163.2008       65.172       65.172       65.172    2.8271073    130.92507 
   79500    300.62314   -63457.726   -62920.583    6108.9631    6131.5562    6175.7298    6019.6032       65.172       65.172       65.172    2.8057528    130.77201 
   80000    301.72372   -63458.614   -62919.505    6130.5574    6130.7476    6124.8232    6136.1013       65.172       65.172       65.172    2.7205497    130.71228 
   80500    301.49951   -63462.075   -62923.366    6072.7828    6035.3327    6068.7015    6114.3143       65.172       65.172       65.172    2.8237771    129.98699 
   81000    300.87242   -63458.347   -62920.759    6090.1376    6067.9679    6135.0647    6067.3801       65.172       65.172       65.172     2.768469    130.16593 
   81500    302.91101   -63458.546   -62917.316    6069.7178    6079.4177    6059.3523    6070.3835       65.172       65.172       65.172    2.5806747    130.04468 
   82000    299.79543   -63457.088   -62921.424    6106.2916    6089.9029    6076.2615    6152.7104       65.172       65.172       65.172     2.710483    130.27861 
   82500    299.91608   -63465.498   -62929.619    6076.1659    6120.7745    6055.6577    6052.0655       65.172       65.172       65.172    2.6748693    129.42484 
   83000    297.41226   -63460.651   -62929.245    6036.2856    6043.0818    6042.1986    6023.5764       65.172       65.172       65.172    2.8898388    129.97448 
   83500     299.2831   -63454.861   -62920.113    6066.2629    6020.9307    6108.9622    6068.8957       65.172       65.172       65.172    2.6354413    130.07578 
   84000    300.36331   -63457.349   -62920.671    6086.1872    6071.1958    6079.9142    6107.4515       65.172       65.172       65.172    2.8697596    130.38091 
   84500    299.97384    -63457.11   -62921.128    6071.4274    6084.7563    6049.2539     6080.272       65.172       65.172       65.172    2.6516499    130.19436 
   85000    299.36574   -63458.925   -62924.029    6078.8642     6112.898    6014.2297     6109.465       65.172       65.172       65.172    2.9144068    129.89272 
   85500    299.40011   -63465.789   -62930.832    6026.0978    6078.2733    6026.8081     5973.212       65.172       65.172       65.172    2.7205578    129.40225 
   86000    297.22721   -63458.753   -62927.679    6004.7597    6042.4232    6016.8917     5954.964       65.172       65.172       65.172    2.6815982    129.59686 
   86500    296.60471   -63456.015   -62926.052    6036.8443     6050.491    6083.3045    5976.7374       65.172       65.172       65.172     2.526088    130.13818 
   87000    299.69393    -63456.43   -62920.948    6072.2075    6117.2512    6048.4406    6050.9308       65.172       65.172       65.172     2.866604    130.20304 
   87500    301.57002    -63453.38   -62914.546    6031.4867    5996.9914    6007.0708    6090.3978       65.172       65.172       65.172     2.934935    130.52623 
   88000    304.21319   -63452.427   -62908.871    6107.5789    6118.5055    6103.9048    6100.3265       65.172       65.172       65.172    2.7349178    130.54798 
   88500    300.19361   -63463.191   -62926.816    5997.8659    5975.8052    5928.5376    6089.2549       65.172       65.172       65.172    2.6547651    129.44499 
   89000    298.14901   -63452.972   -62920.251    6025.2997    6030.7948    6005.4318    6039.6724       65.172       65.172       65.172    2.7695536    130.26619 
   89500    297.41016   -63464.413   -62933.011    5966.7081    6022.1183    5949.1604    5928.8457       65.172       65.172       65.172    2.7185832    129.22427 
   90000     298.4729    -63460.87   -62927.569    6014.8627     6023.536    6034.8087    5986.2436       65.172       65.172       65.172    2.7493181    129.71454 
   90500    298.23975   -63450.941   -62918.057    6072.2016    6066.2046    6103.9322    6046.4679       65.172       65.172       65.172    3.1443418    130.72583 
   91000    304.14956   -63457.558   -62914.115    6117.1521    6171.0568    6056.4754    6123.9242       65.172       65.172       65.172    2.7944189    129.95126 
   91500    300.21946   -63456.785   -62920.364    6092.7271    6099.6747    6089.1343    6089.3723       65.172       65.172       65.172    2.9311698    130.22213 
   92000     301.0196   -63465.829   -62927.978    6051.9721    6111.6567    6075.4825     5968.777       65.172       65.172       65.172    2.8263021    129.17762 
   92500     301.4395    -63457.33   -62918.729    6032.3768    6040.5003    6050.1173    6006.5126       65.172       65.172       65.172    2.9941962    129.80825 
   93000    299.89996   -63454.013   -62918.163    6082.0252    6028.2551    6154.2751    6063.5454       65.172       65.172       65.172    2.9495175    130.40753 
   93500    299.35715   -63465.383   -62930.503    5995.0003    5994.9546    6025.5339    5964.5124       65.172       65.172       65.172    2.7354026    129.10849 
   94000    297.79312   -63464.272   -62932.186    5941.4953    5949.8211    5941.4185    5933.2464       65.172       65.172       65.172    2.6476695    129.03897 
   94500    298.42745   -63460.634   -62927.415     5983.428    5964.6124    5947.3899    6038.2817       65.172       65.172       65.172    3.0610028    129.72598 
   95000    300.35396   -63459.456   -62922.794    6006.7069    6015.0015    5996.8954    6008.2237       65.172       65.172       65.172    2.6525212    129.60453 
   95500    302.55964    -63455.51   -62914.907     6079.032    6116.1757    6028.8139    6092.1063       65.172       65.172       65.172    2.6795602    130.36697 
   96000    302.56522    -63456.43   -62915.818     6085.072    6063.8654    6141.6372    6049.7134       65.172       65.172       65.172    3.0191089    130.48726 
   96500    300.62958   -63458.076   -62920.922    6045.0553    6089.4653    6025.3072    6020.3934       65.172       65.172       65.172    3.0821236    129.98811 
   97000    299.02871   -63459.562   -62925.269    5981.2035    5984.9577    6010.2238     5948.429       65.172       65.172       65.172    2.5596943    129.05684 
   97500    295.96697   -63451.368   -62922.545    6014.5313    5978.2832    6041.8655    6023.4454       65.172       65.172       65.172    2.7621132    130.04667 
   98000     297.9904   -63453.902   -62921.464    6023.0778    5992.0003    6020.3973    6056.8359       65.172       65.172       65.172    2.6681183    130.41457 
   98500    304.29908   -63462.643   -62918.933    6032.3365    6000.6742     6068.894    6027.4413       65.172       65.172       65.172    2.6521233    129.55634 
   99000    301.26619   -63458.775   -62920.484    6069.3631    6050.0366    6058.7539    6099.2988       65.172       65.172       65.172     2.974557    130.04227 
   99500    300.54012   -63459.437   -62922.443    6005.1601    6016.6701    6007.4884    5991.3217       65.172       65.172       65.172    2.8010739    129.44806 
  100000    297.03998   -63463.511   -62932.771    5953.7553    5954.2904    5971.4265    5935.5491       65.172       65.172       65.172    2.7292786     128.9886 
Loop time of 175.324 on 12 procs for 100000 steps with 13824 atoms

Performance: 49.280 ns/day, 0.487 hours/ns, 570.373 timesteps/s
99.3% CPU use with 12 MPI tasks x 1 OpenMP threads

MPI task timing breakdown:
Section |  min time  |  avg time  |  max time  |%varavg| %total
---------------------------------------------------------------
Pair    | 97.301     | 118.67     | 161.59     | 146.5 | 67.69
Neigh   | 0          | 0          | 0          |   0.0 |  0.00
Comm    | 11.155     | 54.002     | 75.342     | 217.0 | 30.80
Output  | 0.24995    | 0.25008    | 0.25114    |   0.1 |  0.14
Modify  | 1.5507     | 1.7092     | 1.8266     |   5.6 |  0.97
Other   |            | 0.6901     |            |       |  0.39

Nlocal:        1152.00 ave        1152 max        1152 min
Histogram: 12 0 0 0 0 0 0 0 0 0
Nghost:        1621.00 ave        1621 max        1621 min
Histogram: 12 0 0 0 0 0 0 0 0 0
Neighs:         0.00000 ave           0 max           0 min
Histogram: 12 0 0 0 0 0 0 0 0 0
FullNghs:      32256.0 ave       32256 max       32256 min
Histogram: 12 0 0 0 0 0 0 0 0 0

Total # of neighbors = 387072
Ave neighs/atom = 28.000000
Neighbor list builds = 0
Dangerous builds = 0
unfix           NVT

### NVE equlibration (de-correlate from thermostats)
fix             NVE all nve
run             100000
Per MPI rank memory allocation (min/avg/max) = 4.531 | 4.531 | 4.532 Mbytes
Step Temp PotEng TotEng Press Pxx Pyy Pzz Lx Ly Lz Fmax Fnorm 
  100000    297.03998   -63463.511   -62932.771    5953.7553    5954.2904    5971.4265    5935.5491       65.172       65.172       65.172    2.7292786     128.9886 
  100500    296.56786   -63462.669   -62932.773    5985.6569    5958.9768    5995.4294    6002.5646       65.172       65.172       65.172    2.6043999     129.1543 
  101000    295.38797   -63460.557   -62932.768     5951.346    5919.6849    5980.5606    5953.7925       65.172       65.172       65.172    2.5017674    129.27067 
  101500    299.87506   -63468.581   -62932.776    5957.1785    5945.8382    5948.0469    5977.6503       65.172       65.172       65.172    2.7716756    128.75465 
  102000    298.59131   -63466.285   -62932.774    5979.5462    5938.8418    5955.9422    6043.8547       65.172       65.172       65.172    3.0246411    128.96734 
  102500    298.13733   -63465.471   -62932.771    5998.7818    6010.6076    5968.0799    6017.6579       65.172       65.172       65.172    2.6672899    129.35677 
  103000     296.3556   -63462.287    -62932.77     5973.051    5959.6783     6023.218    5936.2568       65.172       65.172       65.172    3.2543451    129.52623 
  103500    296.47408   -63462.494   -62932.765    6035.6264    6101.1379    5998.5092    6007.2322       65.172       65.172       65.172      2.63606    129.94536 
  104000    297.28607   -63463.948   -62932.769    6002.6486    5976.6501    6005.3337    6025.9618       65.172       65.172       65.172    2.6444133    129.76418 
  104500    297.80551   -63464.876   -62932.768    6007.4131    6028.8816    6027.6344    5965.7234       65.172       65.172       65.172    2.9897858    129.57642 
  105000    297.45619   -63464.256   -62932.773     5976.674    5994.4438    5984.6834    5950.8947       65.172       65.172       65.172    2.9578006    129.29597 
  105500    298.99544   -63467.007   -62932.773    6020.5037    6018.7603    6065.7714    5976.9794       65.172       65.172       65.172    2.6764036    129.20488 
  106000    298.46357    -63466.05   -62932.766    6070.1298      6098.57    6047.5272    6064.2923       65.172       65.172       65.172    3.4101232    129.70514 
  106500    296.74615   -63462.984   -62932.769    6001.4253    6025.1877     6087.003     5892.085       65.172       65.172       65.172     2.583613    129.21602 
  107000    297.53643   -63464.402   -62932.775    5899.6881    5833.9202     5952.943    5912.2011       65.172       65.172       65.172     2.686494    128.64417 
  107500    294.84323   -63459.582   -62932.767    5974.7435    5965.1846    5998.2149    5960.8308       65.172       65.172       65.172    2.6500856    129.35487 
  108000    296.69656   -63462.892   -62932.766    5979.6267    5989.3753    5982.9524    5966.5525       65.172       65.172       65.172    2.6297222    129.48901 
  108500    298.62827   -63466.352   -62932.774    5949.3395    5911.9228    5898.6793    6037.4163       65.172       65.172       65.172    2.7346301    128.81793 
  109000    298.94487   -63466.917   -62932.773    5986.8732     5921.135    6060.1146    5979.3701       65.172       65.172       65.172    2.7245311    128.73281 
  109500    295.31611   -63460.423   -62932.763    5971.8825    5954.4659    5986.7257    5974.4559       65.172       65.172       65.172    2.9227366    129.67379 
  110000     296.7549       -63463   -62932.769    5964.7351     5956.864    5964.2355    5973.1059       65.172       65.172       65.172    2.5666089    128.89405 
  110500    296.92116   -63463.298    -62932.77    5915.3117    5969.2107    5849.7511    5926.9732       65.172       65.172       65.172    2.8849684     128.6407 
  111000    295.33739   -63460.462   -62932.764    5913.8839    5905.7944    5870.0965    5965.7607       65.172       65.172       65.172    3.1326654    129.17211 
  111500    296.40904   -63462.378   -62932.766     5950.155     5989.625    5979.3819    5881.4581       65.172       65.172       65.172    2.7191114    128.97504 
  112000    295.89851   -63461.465   -62932.764    5955.1924    5965.1973    5927.3312    5973.0485       65.172       65.172       65.172    2.8169942    129.17778 
  112500    294.43513   -63458.851   -62932.765    5955.0469     5964.011    5933.7705    5967.3591       65.172       65.172       65.172    2.9273097    129.30856 
  113000    296.18243   -63461.975   -62932.767    5959.3582    6004.5159    5951.1345    5922.4241       65.172       65.172       65.172    2.7007618    129.35849 
  113500     295.1982   -63460.214   -62932.764    5948.2934     5905.914    6024.4099    5914.5562       65.172       65.172       65.172    2.7941213    129.20071 
  114000    295.49859   -63460.749   -62932.763    5964.5962    5989.6577    5936.9734    5967.1575       65.172       65.172       65.172    3.1832784    129.60423 
  114500    297.31251       -63464   -62932.773    5922.1208     5939.102    5918.9409    5908.3197       65.172       65.172       65.172    2.7068735    128.59743 
  115000    300.12441    -63469.03   -62932.779    5912.6192    5832.4465    5982.5918    5922.8193       65.172       65.172       65.172    3.0298273    128.20818 
  115500    295.89925   -63461.467   -62932.765    5966.6672    5975.3222    5973.6552    5951.0241       65.172       65.172       65.172    3.1615183    129.60398 
  116000    296.28645   -63462.159   -62932.766    6008.2451    5997.1976    5975.8589    6051.6787       65.172       65.172       65.172    2.9207795    129.63955 
  116500    296.38574   -63462.341    -62932.77    5936.5452    5961.6337    5910.9022    5937.0997       65.172       65.172       65.172    2.8508017      129.082 
  117000    297.38785   -63464.125   -62932.763    5983.3982    6029.2993    6000.4223    5920.4729       65.172       65.172       65.172    2.8389107    129.49603 
  117500    295.00264   -63459.864   -62932.764    5976.3532    5978.6628    6004.1558    5946.2409       65.172       65.172       65.172    2.7848699    129.41842 
  118000    295.06973   -63459.987   -62932.768    5949.0981     5926.605    5910.0558    6010.6336       65.172       65.172       65.172    2.5205988    129.16594 
  118500    295.72618   -63461.156   -62932.764    5960.4479     5939.495    5932.2115    6009.6373       65.172       65.172       65.172    2.6275304    129.64399 
  119000    296.55728   -63462.644   -62932.767    5986.8873    5960.7358    6018.6864    5981.2397       65.172       65.172       65.172    2.8255743    129.39306 
  119500    298.10868   -63465.422   -62932.773    5944.7456    5930.6247    5874.1035    6029.5085       65.172       65.172       65.172    2.5947634    128.57953 
  120000    296.88038   -63463.222   -62932.767     5957.352    5938.3294    5952.1731    5981.5537       65.172       65.172       65.172    2.4251944    129.19652 
  120500     296.8678   -63463.198   -62932.765    5984.8114    5992.8711    5948.1049    6013.4583       65.172       65.172       65.172    2.9275292    129.42211 
  121000    295.40973   -63460.596   -62932.769    5942.9353    5961.8658    5978.0824    5888.8577       65.172       65.172       65.172    2.7631659    129.07184 
  121500    295.98904   -63461.627   -62932.765    5984.8691    6021.7336    5990.1383    5942.7355       65.172       65.172       65.172    2.9334896    129.30841 
  122000    295.64726   -63461.014   -62932.763    5985.0365    5897.4438    6092.3939    5965.2719       65.172       65.172       65.172    2.7174473    129.46392 
  122500      296.572   -63462.672   -62932.768    5968.6135    6001.9635    5928.9771       5974.9       65.172       65.172       65.172    2.8283468     128.9388 
  123000    299.05873   -63467.118   -62932.771    5968.2965    5991.0553    5936.8002    5977.0339       65.172       65.172       65.172    2.6074965    128.58361 
  123500    297.79763   -63464.863    -62932.77    5956.0906    5955.2002     6008.055    5905.0167       65.172       65.172       65.172    2.6943032    128.97013 
  124000    298.90386   -63466.845   -62932.775    5955.5694    5960.0622    5940.0462    5966.5997       65.172       65.172       65.172    2.6917577    128.35759 
  124500    295.67574   -63461.066   -62932.764    5966.3516    5964.3021    5946.8938     5987.859       65.172       65.172       65.172    2.6379555    129.40779 
  125000     297.7906   -63464.856   -62932.775    5924.9229    5916.5195    5934.8473     5923.402       65.172       65.172       65.172    2.7412716    128.18532 
  125500    296.69228   -63462.886   -62932.768    5913.1709    5955.6324    5864.1986    5919.6816       65.172       65.172       65.172    2.9001881    128.79104 
  126000    298.63302   -63466.359   -62932.773    5903.9764    5907.0601    5901.1814    5903.6875       65.172       65.172       65.172    2.9193201     128.4632 
  126500    294.12016   -63458.287   -62932.764    5937.4418    5979.0841    5902.9227    5930.3186       65.172       65.172       65.172    2.8172183    129.34006 
  127000    298.20181   -63465.583   -62932.767    5954.8948    6004.9805    5930.2715    5929.4325       65.172       65.172       65.172    3.1201261    129.02735 
  127500     298.6452   -63466.386   -62932.778    5906.4418    5882.4145    5943.9354    5892.9755       65.172       65.172       65.172    2.7077653    127.85135 
  128000    294.63984   -63459.215   -62932.763    5941.9427    5981.9726    5906.2015    5937.6539       65.172       65.172       65.172    2.7264441     129.3278 
  128500    296.64712   -63462.804   -62932.766    5964.0847    6000.1505    5937.2251    5954.8785       65.172       65.172       65.172    2.7239077    129.20696 
  129000     295.0508   -63459.946    -62932.76    5988.3205    6018.6339    6002.5125    5943.8152       65.172       65.172       65.172     2.940225    129.68653 
  129500     298.0923   -63465.393   -62932.773    5906.4735    5947.4359    5866.5822    5905.4025       65.172       65.172       65.172    3.1775352    128.64077 
  130000    297.92715   -63465.097   -62932.772    5902.6493    5904.6505    5911.2185    5892.0788       65.172       65.172       65.172    2.6937909    128.80295 
  130500    298.87162   -63466.789   -62932.776    5930.2586    6002.5859    5889.0635    5899.1263       65.172       65.172       65.172    3.0069848    128.49219 
  131000    298.36532    -63465.88   -62932.771    5983.9642    5925.2575    6022.7378    6003.8971       65.172       65.172       65.172    2.6930983    129.06352 
  131500    297.62147   -63464.552   -62932.773     5965.609    5984.2676    5948.2795    5964.2798       65.172       65.172       65.172     2.577233    128.77515 
  132000    295.47807   -63460.715   -62932.766    5983.2421    5961.4364    5970.3837    6017.9062       65.172       65.172       65.172    2.9253409    129.55852 
  132500    296.57654   -63462.687   -62932.775    5915.1449    5988.9691    5886.4402    5870.0253       65.172       65.172       65.172     3.116838    128.69222 
  133000    297.09039   -63463.593   -62932.763    5999.5542    6003.4575    6039.7386    5955.4667       65.172       65.172       65.172    2.8806465     129.6525 
  133500    295.60429    -63460.94   -62932.765    5997.1408     6001.348    5945.0211    6045.0532       65.172       65.172       65.172    2.9691001    129.58728 
  134000    294.84502   -63459.583   -62932.765    5961.2923    5974.7015    5944.4549    5964.7205       65.172       65.172       65.172    2.7681498    129.48033 
  134500    298.55141   -63466.216   -62932.775    5937.4873      5943.17    5943.2587    5926.0331       65.172       65.172       65.172    2.7653343    128.61752 
  135000    298.77428   -63466.612   -62932.773    5933.7072    5907.4294    5856.7645    6036.9277       65.172       65.172       65.172    2.7755495    129.02766 
  135500    294.45124   -63458.881   -62932.767    5921.3349    5924.7395    5928.6627    5910.6024       65.172       65.172       65.172    2.6748496    129.50407 
  136000    301.84044     -63472.1   -62932.783    5914.1027    5956.8531    5852.2119    5933.2429       65.172       65.172       65.172    2.5518071    128.09945 
  136500    297.80991    -63464.89   -62932.774    5975.1238    6014.3401    5954.4864     5956.545       65.172       65.172       65.172    2.8568866    129.05273 
  137000    297.71726   -63464.721   -62932.771     5979.032    6019.2798    5955.3765    5962.4398       65.172       65.172       65.172    2.9069409    129.14764 
  137500    295.74822   -63461.201   -62932.769    5953.2675    5996.4186    5942.1669     5921.217       65.172       65.172       65.172    3.0379439    129.37875 
  138000    298.09308   -63465.394   -62932.773    5974.7384    6019.1458     5958.951    5946.1184       65.172       65.172       65.172    2.9215495    129.16605 
  138500    296.83888   -63463.153   -62932.772    5989.4078    5942.7103    6006.5656    6018.9475       65.172       65.172       65.172     2.818298    129.19153 
  139000    296.33456   -63462.249    -62932.77    5974.0631    5953.3069    5994.5682     5974.314       65.172       65.172       65.172    2.6861712    129.38079 
  139500     300.2749   -63469.298   -62932.778    5983.2986    5947.1487    6007.2755    5995.4716       65.172       65.172       65.172    2.6562475    128.73531 
  140000    298.93795   -63466.906   -62932.775    5980.2522    6006.5372    5913.3108    6020.9086       65.172       65.172       65.172    2.6467794    129.01939 
  140500    295.77949   -63461.256   -62932.768    5986.2965    5986.2688    6004.2745    5968.3461       65.172       65.172       65.172    2.7558219    129.70507 
  141000    295.83382   -63461.354   -62932.769    5952.8373    5922.4916     5976.223    5959.7974       65.172       65.172       65.172    2.6616666    129.55992 
  141500    294.10381   -63458.256   -62932.763    5991.3286    5959.6585    5993.9838    6020.3435       65.172       65.172       65.172    2.6458139    130.13741 
  142000    295.76048   -63461.224    -62932.77    5984.1802    5991.0708    5941.8925    6019.5772       65.172       65.172       65.172    2.7962411     129.6693 
  142500    296.01987   -63461.687    -62932.77     6010.322    5991.5279    5995.2031     6044.235       65.172       65.172       65.172    2.7100451    129.45727 
  143000    298.34097   -63465.835   -62932.771    5987.6084    5982.1092    6037.7308     5942.985       65.172       65.172       65.172    2.8852171    129.48069 
  143500    296.97847   -63463.405   -62932.775    5943.2697    5980.7941    5926.9784    5922.0366       65.172       65.172       65.172    2.8673434    128.98591 
  144000    294.37319   -63458.737   -62932.762    6010.6761    6024.1112    5967.5609    6040.3564       65.172       65.172       65.172    2.7659381    130.40963 
  144500    296.57547   -63462.678   -62932.768    6009.6273     6013.835    5983.0823    6031.9647       65.172       65.172       65.172    2.8842991    129.74168 
  145000    299.26692   -63467.495   -62932.776    5970.1949     5907.629    5964.5238    6038.4317       65.172       65.172       65.172    2.6297437    128.69321 
  145500    297.38453   -63464.127   -62932.771    5950.6181     5937.838    5986.0533     5927.963       65.172       65.172       65.172    2.7562232    129.09651 
  146000    296.57624   -63462.683   -62932.772    5937.6492    5998.9011    5874.1042    5939.9423       65.172       65.172       65.172    2.7988294    129.21433 
  146500    297.89306   -63465.035    -62932.77    6004.3742      6040.92    5980.5974    5991.6052       65.172       65.172       65.172    2.6574361    129.20479 
  147000    296.75719   -63463.005    -62932.77    5969.7268    6016.8695    5922.9959     5969.315       65.172       65.172       65.172    2.6299654    129.16957 
  147500    296.14737   -63461.914   -62932.769    5978.7818    5985.7646    5959.5261    5991.0547       65.172       65.172       65.172    2.8576354    129.33958 
  148000      296.491   -63462.531   -62932.772    5961.9369    5926.6838    5957.2816    6001.8451       65.172       65.172       65.172     2.702541    128.89617 
  148500    293.80847   -63457.729   -62932.763    5995.1782    6014.5078    5986.8674    5984.1595       65.172       65.172       65.172     2.849419    129.95109 
  149000    298.78918   -63466.638   -62932.772    5957.0092    5980.5284    5953.4941    5937.0052       65.172       65.172       65.172     2.827199    128.83186 
  149500    298.38167   -63465.907    -62932.77    6020.0589    6060.5521    6003.5996    5996.0249       65.172       65.172       65.172    2.5826523    129.28438 
  150000    299.06945   -63467.144   -62932.778    5968.9823    6051.4185    5930.8972    5924.6312       65.172       65.172       65.172    2.7946905     128.5747 
  150500    297.73635   -63464.756   -62932.772    5957.2846    5962.8328    6001.5691    5907.4519       65.172       65.172       65.172    2.9659022    129.07493 
  151000    296.82304   -63463.123   -62932.771    5995.3761    6018.9581     5974.587    5992.5833       65.172       65.172       65.172    2.6743197    129.26261 
  151500    298.44984   -63466.034   -62932.775    5969.6358    6028.6125    5950.5735    5929.7215       65.172       65.172       65.172    2.5173904    128.82769 
  152000    296.68291   -63462.874   -62932.772    5945.2021    5939.2166    5976.6454    5919.7444       65.172       65.172       65.172    2.6727204    129.13732 
  152500    297.83591    -63464.93   -62932.767    6047.9491    6007.0108    6110.2626    6026.5739       65.172       65.172       65.172     2.483131    129.73836 
  153000    298.42121   -63465.984   -62932.776     5996.469    6053.8372    5953.1365    5982.4332       65.172       65.172       65.172    2.9010134    128.94789 
  153500    296.73659   -63462.971   -62932.773    5984.3607    5978.3662    5976.4354    5998.2805       65.172       65.172       65.172    2.8403148    129.31775 
  154000    296.35184   -63462.277   -62932.766    6021.7798    6014.1495    5959.3657    6091.8243       65.172       65.172       65.172    2.8945041    129.83109 
  154500    296.50503   -63462.555   -62932.771    5988.7426    5960.6571    5964.0065    6041.5641       65.172       65.172       65.172    2.7433941    129.21587 
  155000    296.25202     -63462.1   -62932.768    6018.2067    6035.2298    6015.3978    6003.9925       65.172       65.172       65.172    2.6954549    129.57938 
  155500    298.00813   -63465.243   -62932.773    6011.0568    5985.0933    6040.3466    6007.7303       65.172       65.172       65.172    2.5652385    129.08508 
  156000    297.22309   -63463.837   -62932.769    6028.5199    6028.7062    6009.4693    6047.3842       65.172       65.172       65.172    2.7243114    129.63678 
  156500    297.48566    -63464.31   -62932.774    5969.0496    5955.5868     6003.874     5947.688       65.172       65.172       65.172    2.5134798    129.05115 
  157000    296.16982   -63461.955   -62932.769    6000.4212    6046.1349    6014.8536     5940.275       65.172       65.172       65.172    2.7114996    129.69531 
  157500    297.82565   -63464.918   -62932.774    5988.7828    5998.8198    5999.6552    5967.8734       65.172       65.172       65.172    2.7621573    129.28027 
  158000    296.94078   -63463.328   -62932.765     6035.898    6041.4369    6046.5215    6019.7355       65.172       65.172       65.172    2.8732182     130.0285 
  158500    296.12945    -63461.88   -62932.767    6049.3866    6123.3693    6001.2101    6023.5802       65.172       65.172       65.172    2.9090449    130.02626 
  159000    295.52104   -63460.792   -62932.766     6036.324    6041.6522    5983.1957    6084.1242       65.172       65.172       65.172    2.7010115    130.07547 
  159500     297.3152   -63464.001   -62932.769    6039.3203    6054.2875    6024.2995     6039.374       65.172       65.172       65.172    3.0409147    129.87199 
  160000    297.18003    -63463.76    -62932.77    6003.2296    6019.9023    5925.6586    6064.1279       65.172       65.172       65.172    2.6389021    129.62046 
  160500    294.96807   -63459.803   -62932.765    5995.7871    5980.5071    5972.3896    6034.4646       65.172       65.172       65.172    2.9879882    129.95237 
  161000    298.14307   -63465.485   -62932.774    5977.8052    5938.0604    5949.1916    6046.1634       65.172       65.172       65.172    2.5963845    129.08198 
  161500    296.07542   -63461.785   -62932.768    5989.0596    5978.9651    5974.3409    6013.8728       65.172       65.172       65.172    2.5995969    129.86183 
  162000    297.30337   -63463.985   -62932.774     5960.365    5933.0875    5992.3963    5955.6111       65.172       65.172       65.172    2.5603025    129.08284 
  162500    298.36459   -63465.884   -62932.777    5940.0695    5949.6433    5944.2176    5926.3477       65.172       65.172       65.172    2.6972692    128.91236 
  163000    294.95441   -63459.781   -62932.767    5974.0249    5996.9972    5947.3352    5977.7422       65.172       65.172       65.172    2.8337115    129.66488 
  163500    296.37312   -63462.311   -62932.763    6072.5086    6042.5482     6090.839    6084.1387       65.172       65.172       65.172    2.6452352    130.12043 
  164000    299.21501     -63467.4   -62932.774    6012.2954    5979.9364    6056.0337    6000.9161       65.172       65.172       65.172    2.8970323      129.173 
  164500    297.19562   -63463.792   -62932.774    5968.5876    5992.1288    5965.1494    5948.4846       65.172       65.172       65.172    2.8086981    129.28779 
  165000    296.96361   -63463.372   -62932.768     5969.063    5981.4433    5915.1489    6010.5967       65.172       65.172       65.172    3.0644343    129.44274 
  165500    297.26714   -63463.915   -62932.769    5988.5707    5956.9939    5993.6273     6015.091       65.172       65.172       65.172    2.6487537    129.44042 
  166000    298.36947   -63465.885    -62932.77     5984.309    5981.1782    6010.5432    5961.2056       65.172       65.172       65.172    2.5695444    129.39007 
  166500    299.16005   -63467.304   -62932.776    5954.7277     5987.872    5925.8865    5950.4245       65.172       65.172       65.172    2.7048281     128.8304 
  167000    296.50299    -63462.55   -62932.769    5963.4725     5929.854    6041.1968    5919.3666       65.172       65.172       65.172     2.721061    129.36153 
  167500    296.86732   -63463.202   -62932.771    5981.0562    5980.9522    5985.9951    5976.2213       65.172       65.172       65.172    2.7182248    129.11838 
  168000    295.73743   -63461.182   -62932.769    5949.5086    5929.4615    5935.9051    5983.1591       65.172       65.172       65.172    2.9947414    129.28983 
  168500    298.55725   -63466.222   -62932.771    5994.6956    6006.6875    5954.0706    6023.3285       65.172       65.172       65.172     2.566964    129.13854 
  169000    297.64966     -63464.6   -62932.771    5975.8252    5939.5373    5994.0565    5993.8818       65.172       65.172       65.172    3.0210343    129.24446 
  169500    298.72992   -63466.531   -62932.771    5993.9071    5959.5578    5994.2144     6027.949       65.172       65.172       65.172    2.8974576    129.16294 
  170000     297.1822   -63463.764    -62932.77    6002.7677    6059.5003    6025.6591    5923.1436       65.172       65.172       65.172    2.7075059    129.32723 
  170500    296.67826   -63462.861   -62932.767    6009.2241    6011.3942    6061.3434    5954.9345       65.172       65.172       65.172    2.7658274    129.58095 
  171000    295.36292   -63460.511   -62932.768    5973.4398    5946.4161    6029.6648    5944.2384       65.172       65.172       65.172    3.0218331     129.7383 
  171500    299.54741       -63468    -62932.78    5945.4545     5968.105    5924.1713    5944.0871       65.172       65.172       65.172    2.5378329    128.66758 
  172000    297.66159   -63464.618   -62932.768    6024.7019    6039.2117    5988.9323    6045.9616       65.172       65.172       65.172    2.6939774    129.68181 
  172500    295.60246   -63460.937   -62932.766    6000.3068    6058.6376    5956.3154    5985.9673       65.172       65.172       65.172    2.7150803    129.78881 
  173000    296.85051   -63463.169   -62932.767    6029.9385    6054.3441    5987.8493    6047.6221       65.172       65.172       65.172    2.9226805    129.85226 
  173500    295.59165    -63460.92   -62932.768    5972.6184    6023.3135     5921.054    5973.4878       65.172       65.172       65.172    2.7047936    129.47852 
  174000    295.59229   -63460.919   -62932.766    5960.7353    5938.2278    5956.6291    5987.3491       65.172       65.172       65.172    2.7490317    129.66962 
  174500    296.81961   -63463.116    -62932.77    6006.2871    6019.1768    5947.8923    6051.7922       65.172       65.172       65.172    2.6657676    129.25118 
  175000    297.51627   -63464.367   -62932.776    5921.9482    5969.4057    5844.0652    5952.3735       65.172       65.172       65.172    2.8375876    128.93401 
  175500    297.08172   -63463.587   -62932.773     5969.819    6001.7923    5966.6808    5940.9838       65.172       65.172       65.172    2.5469391    129.00908 
  176000    297.01983   -63463.475   -62932.771    5940.1326    5923.1348    5936.4799     5960.783       65.172       65.172       65.172    2.6812721    129.08759 
  176500    300.02428   -63468.852   -62932.779    5917.4142    5884.2307    5985.1223    5882.8896       65.172       65.172       65.172    2.8775313    128.45821 
  177000    298.00037   -63465.231   -62932.775    5937.1799    5943.9837    5890.7317    5976.8241       65.172       65.172       65.172    2.6721302     128.8852 
  177500    298.55394   -63466.221   -62932.775    5928.5558    5876.0578    5940.7825     5968.827       65.172       65.172       65.172    2.6129934    129.15675 
  178000    294.92039   -63459.716   -62932.763    5962.1784       5951.7    5961.5958    5973.2394       65.172       65.172       65.172     3.051387    130.09396 
  178500     297.3865   -63464.127   -62932.768    6023.7127    6015.4415    6033.7336     6021.963       65.172       65.172       65.172    2.9334616     129.7239 
  179000    298.97219   -63466.969   -62932.777    5994.9673    6017.9189    6005.0588    5961.9242       65.172       65.172       65.172    2.7423796    128.89206 
  179500    296.13132    -63461.88   -62932.763    6044.9315    6046.6813    6050.3384    6037.7748       65.172       65.172       65.172    2.6512675    129.89669 
  180000    296.66713   -63462.844    -62932.77    5997.2678    6011.6427    5986.8728    5993.2878       65.172       65.172       65.172    2.6875308     129.4146 
  180500    298.12849   -63465.462   -62932.778    5981.0975    5918.2516    6000.0018     6025.039       65.172       65.172       65.172    2.7249162    128.89761 
  181000    295.03574   -63459.923   -62932.764    6005.7044    5945.2435    6046.5551    6025.3147       65.172       65.172       65.172    2.6225476    130.34984 
  181500    298.42652   -63465.994   -62932.777     5978.433    5934.9239    5993.5346    6006.8405       65.172       65.172       65.172    2.8226174    129.06124 
  182000    295.27489   -63460.354   -62932.768    6030.0471    5993.8005    6019.1096    6077.2311       65.172       65.172       65.172    3.0175245    130.00612 
  182500    297.02426   -63463.485   -62932.773     6002.248    5995.8839     5929.112     6081.748       65.172       65.172       65.172     2.676069    129.57639 
  183000    298.13029   -63465.461   -62932.772    6053.0616    6011.8748    6081.4563    6065.8538       65.172       65.172       65.172    2.7386419    129.61649 
  183500    296.17128   -63461.957   -62932.769    6042.5075    5997.0661    6062.7074    6067.7491       65.172       65.172       65.172    2.8746934    129.82721 
  184000    299.05565   -63467.122    -62932.78    5989.3903    6015.1779    5967.2502    5985.7427       65.172       65.172       65.172    2.7444673     128.7505 
  184500    296.66403   -63462.837   -62932.769    6012.0707    5965.1138     6001.548    6069.5504       65.172       65.172       65.172    2.8731695    129.98353 
  185000    295.28664   -63460.377   -62932.769    5959.3238     5973.658    5965.9955    5938.3178       65.172       65.172       65.172    2.9109503     129.7954 
  185500    299.29652   -63467.548   -62932.776    6030.7066    6002.8248    6045.3636    6043.9314       65.172       65.172       65.172    2.8947476     129.2124 
  186000    296.97506   -63463.393   -62932.769    5999.5205    5996.6132    5984.4993    6017.4491       65.172       65.172       65.172    2.9403548    129.61402 
  186500    294.37462   -63458.739   -62932.761    6075.5571    6117.9711    6011.0732    6097.6271       65.172       65.172       65.172    2.9092618    130.47204 
  187000    297.97326   -63465.184   -62932.776    5983.4825    5996.3242    5995.1817    5958.9416       65.172       65.172       65.172    2.5776094    129.25596 
  187500     295.1567   -63460.143   -62932.768    6001.4833    5974.6229    6064.3366    5965.4905       65.172       65.172       65.172    2.7258438    129.73915 
  188000    296.72977   -63462.961   -62932.775    5990.0482    6012.2024    5979.5805    5978.3617       65.172       65.172       65.172     3.148975    129.39023 
  188500    298.64847   -63466.387   -62932.773    6015.3381     6024.929    6024.5986    5996.4867       65.172       65.172       65.172    2.6643014    129.57223 
  189000    299.20464   -63467.383   -62932.775     6002.153    6010.0848    6022.6199    5973.7544       65.172       65.172       65.172     2.558734    129.50176 
  189500    298.45117   -63466.036   -62932.775    6021.2997    6022.5497    5994.3929    6046.9566       65.172       65.172       65.172    3.0561702    128.98896 
  190000    295.28281   -63460.369   -62932.769    6027.0985    5991.2384    6069.2023    6020.8546       65.172       65.172       65.172    3.0489452    129.49311 
  190500    297.05036   -63463.526   -62932.768    5992.2209    5957.3534    6009.4945    6009.8146       65.172       65.172       65.172    2.6373699    129.47882 
  191000    298.65011   -63466.392   -62932.775    5954.5076    5990.9228     5959.532    5913.0679       65.172       65.172       65.172    2.6596251    128.83545 
  191500    297.35907    -63464.08   -62932.769    5989.0531    5997.5903    5976.8031    5992.7657       65.172       65.172       65.172    2.8438641    129.30221 
  192000    295.75108   -63461.204   -62932.767    6027.5076    6023.8268    6030.9207    6027.7753       65.172       65.172       65.172    2.9978654    129.75568 
  192500    295.41804   -63460.606   -62932.764    6046.2778    5993.8019    6069.8153    6075.2164       65.172       65.172       65.172       2.5638    129.96047 
  193000    299.27228   -63467.509    -62932.78    5948.8647    5964.0054    6002.6476    5879.9411       65.172       65.172       65.172    2.7166452    128.62701 
  193500    295.83094   -63461.352   -62932.772    5947.6942    5925.4545    6028.3841    5889.2441       65.172       65.172       65.172     2.716558    129.14404 
  194000    296.51558   -63462.574   -62932.771    5972.2508    5997.1999    5966.6184     5952.934       65.172       65.172       65.172    2.5920215    129.30635 
  194500    295.71432   -63461.137   -62932.766     6009.786    6051.1802     5990.287    5987.8907       65.172       65.172       65.172    2.9450058    129.56244 
  195000    295.12294   -63460.086   -62932.771    5976.7665    5958.1125    5974.7012    5997.4857       65.172       65.172       65.172    2.8098201    129.35437 
  195500    295.53552   -63460.819   -62932.767    6014.7545    6054.8996    6019.3861    5969.9779       65.172       65.172       65.172     2.733798    129.79422 
  196000    296.18188   -63461.976   -62932.769    6029.2317    6016.3743    6013.8669    6057.4539       65.172       65.172       65.172    2.7695049    129.73191 
  196500    298.25172   -63465.681   -62932.776    6017.6829    5981.9776    6100.7949    5970.2761       65.172       65.172       65.172    2.6054132    129.15993 
  197000    294.80727   -63459.517   -62932.766    6025.9499    6067.5504    5960.6809    6049.6184       65.172       65.172       65.172    2.8916437    129.99654 
  197500    295.37408   -63460.532   -62932.769    5993.5672    5945.8066    6082.3425    5952.5524       65.172       65.172       65.172    2.4897991    129.59929 
  198000     296.3174   -63462.221   -62932.772    5968.1813    5989.5598    5983.3004    5931.6837       65.172       65.172       65.172    2.6999921    129.46084 
  198500    298.73251   -63466.543   -62932.779    5992.8734    5971.8236    6005.5301    6001.2667       65.172       65.172       65.172    2.6389946    128.76723 
  199000    295.76995   -63461.239   -62932.768    6041.5426    6003.0162    6061.3354    6060.2763       65.172       65.172       65.172    2.7595541    130.18672 
  199500    294.68088   -63459.288   -62932.763    6043.3387    6020.5359    6041.4096    6068.0706       65.172       65.172       65.172    2.6029102    130.55849 
  200000    296.97024   -63463.389   -62932.773    5999.1948    5995.6043    5944.7021     6057.278       65.172       65.172       65.172    2.5790837     129.3599 
Loop time of 182.856 on 12 procs for 100000 steps with 13824 atoms

Performance: 47.250 ns/day, 0.508 hours/ns, 546.879 timesteps/s
99.3% CPU use with 12 MPI tasks x 1 OpenMP threads

MPI task timing breakdown:
Section |  min time  |  avg time  |  max time  |%varavg| %total
---------------------------------------------------------------
Pair    | 103.54     | 124.31     | 142.86     | 115.6 | 67.98
Neigh   | 0          | 0          | 0          |   0.0 |  0.00
Comm    | 38.342     | 56.688     | 77.495     | 170.6 | 31.00
Output  | 0.25965    | 0.26025    | 0.26106    |   0.1 |  0.14
Modify  | 0.46448    | 0.51911    | 0.62177    |   7.0 |  0.28
Other   |            | 1.074      |            |       |  0.59

Nlocal:        1152.00 ave        1182 max        1136 min
Histogram: 3 2 0 3 1 1 0 1 0 1
Nghost:        1621.00 ave        1637 max        1591 min
Histogram: 1 0 1 0 1 1 3 0 2 3
Neighs:         0.00000 ave           0 max           0 min
Histogram: 12 0 0 0 0 0 0 0 0 0
FullNghs:      32256.0 ave       33096 max       31808 min
Histogram: 3 2 0 3 1 1 0 1 0 1

Total # of neighbors = 387072
Ave neighs/atom = 28.000000
Neighbor list builds = 0
Dangerous builds = 0
unfix           NVE

# -------------------- sample the data -----------------------

### vels/pos print frequency
variable	dt_dump equal 24

### print pos to hdf5 file
#dump            POS all h5md ${dt_dump} pos.h5 position species
#dump_modify     POS sort id
dump            pos all custom ${dt_dump} pos.dat id type xu yu zu
dump            pos all custom 24 pos.dat id type xu yu zu
dump_modify     pos sort id

### run to collect pos/vels
fix             NVE all nve
run             262144
Per MPI rank memory allocation (min/avg/max) = 4.548 | 4.548 | 4.549 Mbytes
Step Temp PotEng TotEng Press Pxx Pyy Pzz Lx Ly Lz Fmax Fnorm 
  200000    296.97024   -63463.389   -62932.773    5999.1948    5995.6043    5944.7021     6057.278       65.172       65.172       65.172    2.5790837     129.3599 
  200500    295.51499   -63460.781   -62932.766    6033.8841    6050.6629    6062.1214     5988.868       65.172       65.172       65.172    3.2422623    130.13952 
  201000    297.59938   -63464.507   -62932.768    6029.7236    6024.2847    5966.3611     6098.525       65.172       65.172       65.172    2.8848232    129.91534 
  201500    298.79029   -63466.644   -62932.777    6030.5149    6011.9647    6022.4016    6057.1784       65.172       65.172       65.172    2.7792421    129.41632 
  202000    299.37267   -63467.684   -62932.776    6025.4552     6070.617    6013.9773    5991.7713       65.172       65.172       65.172    2.6039691    129.13435 
  202500    293.80028   -63457.713   -62932.761    6049.4853    6082.6307    5994.1639    6071.6614       65.172       65.172       65.172    2.7370095    130.26836 
  203000    295.04953    -63459.95   -62932.766    6017.1345    6043.1473    5940.6835    6067.5726       65.172       65.172       65.172    2.7319668    129.81923 
  203500    296.75378   -63463.001   -62932.773    5954.4929    5969.2546    5913.2838    5980.9402       65.172       65.172       65.172    3.0884329    129.28407 
  204000    296.21028   -63462.022   -62932.764     6042.104    6063.3063    6021.5082    6041.4975       65.172       65.172       65.172    2.8484289    129.90553 
  204500    296.66663   -63462.844   -62932.771    6019.3925    6064.3263    5998.9562    5994.8951       65.172       65.172       65.172    2.7662587    129.48264 
  205000     295.5617   -63460.865   -62932.766    6051.8376    6026.2822    6057.3751    6071.8554       65.172       65.172       65.172    2.8972755    130.03715 
  205500    296.76184   -63463.012   -62932.769    6039.0241    6034.5947     5992.673    6089.8045       65.172       65.172       65.172     2.707216    129.62209 
  206000     295.2565   -63460.317   -62932.764    6017.8236    6008.0236    6000.5522     6044.895       65.172       65.172       65.172    2.5563308     130.1138 
  206500    299.82795   -63468.499   -62932.778    5965.6131    5995.1157    5981.3705     5920.353       65.172       65.172       65.172    2.5537819    128.85895 
  207000    297.44274    -63464.23   -62932.771    6033.1241    6030.7518    6008.4785    6060.1421       65.172       65.172       65.172     3.053558    129.64871 
  207500    297.16314   -63463.732   -62932.772    6043.8856    6065.6901      6003.43    6062.5366       65.172       65.172       65.172    2.6668364    129.81608 
  208000    297.68881   -63464.674   -62932.775    5989.0705      5929.82    5968.6353    6068.7562       65.172       65.172       65.172    2.6695361    129.29327 
  208500    299.77726   -63468.411    -62932.78    5983.0213    6011.5983    6003.6794    5933.7863       65.172       65.172       65.172    2.6626206    128.89372 
  209000    297.29935   -63463.969   -62932.766    6053.0658    6013.6259     6055.553    6090.0185       65.172       65.172       65.172    2.5338092    129.97816 
  209500     297.7864   -63464.847   -62932.773     5989.513    5979.0476    6013.4188    5976.0727       65.172       65.172       65.172    2.7187693    129.17509 
  210000    297.09207   -63463.604   -62932.771    6020.9279    6052.4793    6019.5849    5990.7195       65.172       65.172       65.172    2.6468966      129.785 
  210500    295.61314   -63460.957   -62932.766     6024.103    6002.2785    6053.3912    6016.6392       65.172       65.172       65.172    2.7969853    130.02417 
  211000    298.52475    -63466.17   -62932.777     6000.448    6040.7656    5990.1237    5970.4549       65.172       65.172       65.172    2.9776581     128.8857 
  211500    295.32486   -63460.444   -62932.768    5972.6033    5961.0241    5923.4317    6033.3539       65.172       65.172       65.172    2.5704296    129.81031 
  212000    299.00431   -63467.025   -62932.775    6001.2175    6013.4062    6025.3817    5964.8645       65.172       65.172       65.172    2.8670904    129.13731 
  212500    296.36973   -63462.316   -62932.773    5966.4722    5990.6918    5967.3288    5941.3961       65.172       65.172       65.172    2.6448754    129.16896 
  213000    297.28587   -63463.949    -62932.77    6025.6061    6077.8117    6006.6312    5992.3754       65.172       65.172       65.172    3.0474673    129.26403 
  213500    295.34467   -63460.476   -62932.765    6025.7739    5983.5987    6052.7931    6040.9299       65.172       65.172       65.172    3.2955466    129.56892 
  214000    297.32537    -63464.02    -62932.77    6006.4814    5959.2349     6025.681    6034.5284       65.172       65.172       65.172    2.7518009    129.52397 
  214500     297.2136    -63463.82    -62932.77    6001.6043    5988.0125    6071.0695     5945.731       65.172       65.172       65.172    2.8675581    129.43548 
  215000    297.38851   -63464.137   -62932.774    5977.3631    5997.0228    5977.4283    5957.6381       65.172       65.172       65.172    2.5378699    129.17016 
  215500    294.92637   -63459.724   -62932.761    6017.2407     5979.754    6064.4746    6007.4934       65.172       65.172       65.172    2.6577952     130.2509 
  216000    295.80511   -63461.305   -62932.771    5974.3945    5939.5486    6019.1433    5964.4916       65.172       65.172       65.172    2.6044714    129.28523 
  216500    295.82043   -63461.327   -62932.766    5992.5205    5955.9432    5987.1754     6034.443       65.172       65.172       65.172    2.7036273    129.55856 
  217000    296.97432   -63463.391   -62932.768     6014.106    6021.5072    5989.3816    6031.4292       65.172       65.172       65.172     3.032605    129.41519 
  217500    297.19205   -63463.783   -62932.771    5984.3478    6039.2335    5956.1468    5957.6632       65.172       65.172       65.172    2.5656822     129.2374 
  218000    299.40468   -63467.742   -62932.777      5975.62    5909.3161    6013.9583    6003.5856       65.172       65.172       65.172    2.7098018    128.77092 
  218500    297.31806   -63464.011   -62932.774    5992.7634    5969.5212    6020.3164    5988.4528       65.172       65.172       65.172    2.7966814    129.13106 
  219000    301.68777   -63471.829   -62932.784    5947.6841    5963.2193    5966.0026    5913.8305       65.172       65.172       65.172    2.6517947    128.02873 
  219500    297.68018   -63464.653   -62932.769    5995.6902    6054.4226    5998.3806    5934.2673       65.172       65.172       65.172    2.6216528    129.57165 
  220000    298.86901   -63466.781   -62932.773    5979.6704    5950.4729    6025.2909    5963.2474       65.172       65.172       65.172    2.9076916    129.09183 
  220500    296.69145   -63462.886   -62932.768    6032.3947    6011.9774    6071.5502    6013.6566       65.172       65.172       65.172    2.7677175    129.47028 
  221000    296.96115   -63463.369    -62932.77     6014.993    6028.0078    6001.1365    6015.8348       65.172       65.172       65.172     2.768306     129.4367 
  221500    295.15939    -63460.15    -62932.77    5964.6239    5918.3343    5994.9024    5980.6349       65.172       65.172       65.172    2.5918014    129.24966 
  222000    297.72092   -63464.725   -62932.768    6015.4607    6009.6953    5985.6068    6051.0798       65.172       65.172       65.172    2.7009221    129.29206 
  222500    296.38253   -63462.331   -62932.766    5973.2231    5981.7335    5944.6988    5993.2372       65.172       65.172       65.172    2.7704222    129.36928 
  223000    296.74524    -63462.98   -62932.766    6019.8529     6046.609    5994.8873    6018.0624       65.172       65.172       65.172     3.258181     129.5273 
[...]
  406500    299.47927   -63467.877   -62932.779    5901.0352     5953.184    5872.9359    5876.9857       65.172       65.172       65.172    2.9024031    128.35749 
  407000    296.24475    -63462.09   -62932.771    5910.4212    5891.6591    5952.9866    5886.6178       65.172       65.172       65.172    2.9058937    128.92458 
  407500    292.61007   -63455.582   -62932.757    5958.5015    5952.2854    5962.9575    5960.2617       65.172       65.172       65.172    2.7786628    130.09526 
  408000    296.06499   -63461.766   -62932.768    5930.7425    5921.6378    5923.7989    5946.7908       65.172       65.172       65.172    3.0051532    129.24275 
  408500     295.6654    -63461.05   -62932.766    5973.2151    5974.1654    5979.9425    5965.5374       65.172       65.172       65.172    2.5116661    129.38505 
  409000    296.36719   -63462.305   -62932.767    5988.1607    6024.4735    6008.5178    5931.4906       65.172       65.172       65.172    2.6201542    129.12613 
  409500    297.44621   -63464.233   -62932.767    5968.8635    5905.3406    5978.0305    6023.2196       65.172       65.172       65.172    2.5386378     129.2751 
  410000     297.4261   -63464.196   -62932.766    5993.8647     6020.531    5967.2627    5993.8003       65.172       65.172       65.172    2.6272451     129.3761 
  410500    295.66275   -63461.046   -62932.767    5962.7124    5904.6678    5972.3028    6011.1665       65.172       65.172       65.172    2.8456268    129.76991 
  411000    299.02602   -63467.062   -62932.773    5964.5922    5948.8206     5984.437    5960.5191       65.172       65.172       65.172    2.5083189    128.99576 
  411500    296.32182   -63462.224   -62932.767    5959.4805    5938.2861    5973.1632    5966.9922       65.172       65.172       65.172    2.7487136    129.35816 
  412000    296.80891   -63463.094   -62932.767    6005.5253     6008.993    6019.3711    5988.2119       65.172       65.172       65.172    3.0756047    129.56999 
  412500    297.04402   -63463.517    -62932.77    5955.0876    5975.1305    5973.1176    5917.0147       65.172       65.172       65.172    2.6546095    129.09285 
  413000    297.02332   -63463.481   -62932.771    5931.7096    5874.6136    5981.3733     5939.142       65.172       65.172       65.172    3.1082475    128.87839 
  413500    298.41363   -63465.967   -62932.772    5939.8503    5991.7798    5929.3034    5898.4679       65.172       65.172       65.172    2.5275327    129.05673 
  414000    295.65481   -63461.038   -62932.773    5926.0322    5942.4575    5939.5923    5896.0468       65.172       65.172       65.172    2.6408434    128.69638 
  414500    298.12662   -63465.458   -62932.777    5931.8156    5931.4868    5909.0718    5954.8882       65.172       65.172       65.172    2.5462019    128.12449 
  415000    296.35955   -63462.297   -62932.773    5910.3548    5881.4926    5944.4728     5905.099       65.172       65.172       65.172    2.7950113    128.73965 
  415500    297.56231   -63464.444   -62932.771    5954.4248    5987.9667    5914.5239    5960.7839       65.172       65.172       65.172    2.8594478    128.97707 
  416000    295.31158   -63460.419   -62932.767    5966.6474    6025.2591    5885.6103    5989.0729       65.172       65.172       65.172    2.8074103    129.29399 
  416500    298.95374    -63466.93    -62932.77    5989.9153    5989.4525    5976.8143    6003.4792       65.172       65.172       65.172    2.8899494    128.94978 
  417000    297.07596    -63463.57   -62932.765    6028.0395    6113.1048    5991.3778    5979.6358       65.172       65.172       65.172    2.6065306    129.62663 
  417500    295.65567   -63461.037   -62932.771    5915.4038     5930.123    5887.7946    5928.2937       65.172       65.172       65.172    2.7386064    128.98815 
  418000    296.85314   -63463.174   -62932.768    5983.9594     5994.832    6008.7436    5948.3026       65.172       65.172       65.172     2.965216     129.2591 
  418500    298.17531   -63465.543   -62932.774    5937.5621    5981.5432    5927.7509    5903.3924       65.172       65.172       65.172     2.630889    128.68926 
  419000    300.18463   -63469.136   -62932.777    5960.6502    5997.5026    5977.0462    5907.4019       65.172       65.172       65.172    2.7060263    128.37743 
  419500    298.06007   -63465.337   -62932.775    5938.0712    5923.0135    5930.9165    5960.2837       65.172       65.172       65.172    2.8975018    128.60281 
  420000    294.10276   -63458.255   -62932.763    5978.1155    5970.7041     5958.524    6005.1185       65.172       65.172       65.172    2.4981077    130.03137 
  420500    298.67384    -63466.43   -62932.771    5965.4082    5988.4592    5945.6391    5962.1262       65.172       65.172       65.172    2.5485866    128.94392 
  421000    293.58096    -63457.32    -62932.76    6029.5358    6037.3767    6064.8041    5986.4265       65.172       65.172       65.172    2.6341822    130.34075 
  421500    298.34154   -63465.842   -62932.777    5987.8264     5946.244    5983.3785    6033.8568       65.172       65.172       65.172     2.883472    128.94032 
  422000    294.78338   -63459.475   -62932.767    5990.9763     6016.599    5990.7643    5965.5657       65.172       65.172       65.172    3.7220476    129.84614 
  422500    294.38046   -63458.752   -62932.764     5982.596    5939.0864    6044.0037    5964.6979       65.172       65.172       65.172    2.8110805    129.94073 
  423000    300.49734   -63469.699   -62932.781    5915.3308    5911.5701    5892.4949    5941.9274       65.172       65.172       65.172    2.7422397     128.3398 
  423500    295.62704    -63460.98   -62932.765    5988.0884    5984.7212    6058.4918    5921.0523       65.172       65.172       65.172    2.6431579    129.67042 
  424000    296.36908   -63462.306   -62932.765    6028.2755    6005.3147      6048.78    6030.7317       65.172       65.172       65.172    2.6563751    129.88436 
  424500    295.80634   -63461.306    -62932.77    5952.9077    5908.2294    5972.1496     5978.344       65.172       65.172       65.172    2.7023458    129.76772 
  425000    294.76223   -63459.437   -62932.767    5973.9228    5999.7194    5997.6196    5924.4295       65.172       65.172       65.172    2.9555321     129.8609 
  425500    297.07915   -63463.576   -62932.766    6032.7095    6083.5034    6005.3524    6009.2727       65.172       65.172       65.172    2.9964939    129.66984 
  426000    297.63092   -63464.573   -62932.777    5952.0791    5903.7163    5963.3534    5989.1675       65.172       65.172       65.172    2.6616209    128.92768 
  426500    296.52522   -63462.593   -62932.773    5968.2641    5909.7826    6008.4283    5986.5814       65.172       65.172       65.172    2.7141621    129.30756 
  427000     295.8186   -63461.325   -62932.767    6030.9563    6070.6506    6067.0199    5955.1984       65.172       65.172       65.172    2.9980631    129.75799 
  427500    294.21338   -63458.455   -62932.765    5974.4522    5975.3601     5974.477    5973.5196       65.172       65.172       65.172     2.716539    129.69336 
  428000    296.65706   -63462.824   -62932.769    5986.5323    5953.6986    5969.7641    6036.1341       65.172       65.172       65.172    2.9597775    129.56856 
  428500    294.68836   -63459.304   -62932.766     5985.382    5984.8779    5981.6812    5989.5869       65.172       65.172       65.172    2.9430992    129.58163 
  429000    298.04971   -63465.316   -62932.772    6043.3934    6065.8498    6051.5928    6012.7376       65.172       65.172       65.172     2.693462    129.39478 
  429500    295.78102   -63461.257   -62932.767    6007.1704    6020.3462     5968.167    6032.9979       65.172       65.172       65.172    2.6468089    129.61611 
  430000    297.15995   -63463.725    -62932.77    5991.1723    6018.3797    5986.1425    5968.9946       65.172       65.172       65.172    2.7764837    129.61554 
  430500    295.19657   -63460.215   -62932.769    6004.5581    5995.3366    5931.3035    6087.0342       65.172       65.172       65.172    2.6402647    129.83997 
  431000    297.54547   -63464.415   -62932.772    5999.4984     6019.045    5992.8574    5986.5929       65.172       65.172       65.172    2.7250976      129.596 
  431500    297.60108   -63464.517   -62932.775       5977.3    5981.7587    5905.9723     6044.169       65.172       65.172       65.172    2.6545494    129.25391 
  432000    296.68378   -63462.876   -62932.772    5988.9123    5965.8711    5992.4674    6008.3985       65.172       65.172       65.172    2.5638349    129.33918 
  432500    297.26531   -63463.908   -62932.766    6066.8832    6064.5052    6025.1324    6111.0121       65.172       65.172       65.172     3.000375    130.02512 
  433000    297.33754   -63464.048   -62932.776    5996.2051    5974.5208    6030.1689    5983.9257       65.172       65.172       65.172    2.6585711    129.28168 
  433500    297.31411   -63464.003   -62932.774    6019.0977     6004.625    6055.5371    5997.1311       65.172       65.172       65.172    2.8091623    129.35747 
  434000    296.52084   -63462.581   -62932.768    6015.3713    6023.7253    6026.1567    5996.2319       65.172       65.172       65.172    2.6954906    129.77695 
  434500    296.42488   -63462.411    -62932.77    6016.4518    5969.0501    5994.1873     6086.118       65.172       65.172       65.172    2.6464412    129.84284 
  435000     296.1257   -63461.875   -62932.769    5977.9508    5976.5298    6003.9633    5953.3592       65.172       65.172       65.172    3.0005196    129.94232 
  435500    294.94069   -63459.756   -62932.767    5975.3673    5971.9772    5971.8779    5982.2469       65.172       65.172       65.172     2.791786     129.7315 
  436000    300.03018   -63468.864   -62932.781    5962.5348    5917.7667    5986.0688     5983.769       65.172       65.172       65.172     2.701117    128.37129 
  436500    297.74205   -63464.765   -62932.771    5999.8615    5963.6702    6053.6418    5982.2726       65.172       65.172       65.172    2.7270802    129.43424 
  437000    297.28972   -63463.956    -62932.77    6014.7524    6003.1116    6048.2089    5992.9366       65.172       65.172       65.172    2.6215043    129.71901 
  437500    296.24634   -63462.087   -62932.765    6034.0859    6045.8291    6033.0185      6023.41       65.172       65.172       65.172    2.7738365    130.30398 
  438000    297.83504   -63464.933   -62932.772    6006.6101    5995.0107    6004.4125    6020.4072       65.172       65.172       65.172    2.7860416     129.5467 
  438500    295.87775   -63461.428   -62932.765    6041.5124    6054.3094    6043.5726    6026.6552       65.172       65.172       65.172    2.7879896    130.04814 
  439000    297.39603   -63464.149   -62932.773    6005.7368    6000.5496    6018.2778    5998.3829       65.172       65.172       65.172     2.564651    129.35549 
  439500    295.75574   -63461.212   -62932.766    6036.5788    6006.8286    6073.3285    6029.5793       65.172       65.172       65.172    2.8709583    129.78198 
  440000    297.10688    -63463.63    -62932.77    5982.6523    5969.5003    5984.6889    5993.7679       65.172       65.172       65.172    2.7948045    129.69135 
  440500    296.28555   -63462.159   -62932.767    6041.9219    6009.0952    6066.0795    6050.5911       65.172       65.172       65.172    2.6896065    129.81883 
  441000    297.20537    -63463.81   -62932.774    5959.5523    5940.5638    5999.4559    5938.6372       65.172       65.172       65.172     2.797513    129.15962 
  441500    296.13628   -63461.891   -62932.766    6037.6661    6005.2579    6026.7312    6081.0092       65.172       65.172       65.172    2.8296846    129.92609 
  442000    297.51455   -63464.361   -62932.773    5993.8666    6008.4421    5979.2348    5993.9229       65.172       65.172       65.172    2.8606364    129.74363 
  442500     297.1957   -63463.792   -62932.773    6006.8622    5940.2274    6087.5456    5992.8136       65.172       65.172       65.172    2.9017457    129.37558 
  443000    297.16587   -63463.738   -62932.774     6027.128    6056.7554    6027.1357    5997.4928       65.172       65.172       65.172    3.0325482     129.6488 
  443500     296.2793   -63462.153   -62932.772    6031.3035     6071.411     6010.163    6012.3366       65.172       65.172       65.172    2.6045413    129.85361 
  444000    296.49857   -63462.543    -62932.77    6030.7744    6000.0934    6009.3144    6082.9154       65.172       65.172       65.172    2.8923551    129.56327 
  444500    298.61848   -63466.332   -62932.772    6041.3843    6096.4827    6048.6705    5978.9997       65.172       65.172       65.172    2.9806042    129.43029 
  445000    297.29299   -63463.966   -62932.773     5995.564    6026.2014    5997.1954    5963.2953       65.172       65.172       65.172    3.2095435    129.42179 
  445500    295.95345   -63461.568    -62932.77     5982.576    5994.3337    5991.5103     5961.884       65.172       65.172       65.172     2.497126     129.6112 
  446000    297.33727   -63464.043   -62932.772    6013.7284    6005.0514    6052.2463    5983.8875       65.172       65.172       65.172    2.8555397    129.44639 
  446500    297.94331   -63465.125   -62932.771    6024.8687    6007.2569    5991.4949    6075.8543       65.172       65.172       65.172    2.8394362    129.28339 
  447000    295.50157   -63460.755   -62932.764    5992.0039    6064.0473    5962.1705    5949.7939       65.172       65.172       65.172    2.9121945    130.06907 
  447500    295.21992   -63460.256   -62932.768    5992.4675    5964.5924    6035.5778    5977.2324       65.172       65.172       65.172     2.760645    129.78185 
  448000    297.90609   -63465.061   -62932.773    5999.9993     5976.186    5959.4382    6064.3738       65.172       65.172       65.172    3.0392473    129.32782 
  448500    298.16228   -63465.519   -62932.773    5988.5584    5995.7797    5948.3111    6021.5843       65.172       65.172       65.172    2.5880017    128.98888 
  449000    297.01257   -63463.461    -62932.77    5980.6207     5945.204    5941.7171    6054.9409       65.172       65.172       65.172    2.7985704    129.34269 
  449500    298.61917   -63466.335   -62932.774    5971.6326    5956.6602    5990.8698    5967.3676       65.172       65.172       65.172    2.9262235    128.90226 
  450000    297.40223    -63464.16   -62932.773    5955.2743    6014.2039    5930.9711     5920.648       65.172       65.172       65.172    2.7805998    128.98595 
  450500    295.32348   -63460.439   -62932.766    5968.9474     5950.208    5944.9611    6011.6732       65.172       65.172       65.172    2.6148303    129.64174 
  451000    296.74376   -63462.983   -62932.772    5959.6451    5938.0647    5987.5815    5953.2893       65.172       65.172       65.172    2.7509959    129.22235 
  451500    300.09083   -63468.969   -62932.778    5969.2212    5955.7514    5939.9431    6011.9691       65.172       65.172       65.172      2.75565    128.66291 
  452000    296.85662    -63463.18   -62932.767    6003.5687     5994.299    5971.0094    6045.3976       65.172       65.172       65.172    2.7657059    129.82989 
  452500     295.0807   -63460.007   -62932.768    5980.2883    6018.3265    5965.6059    5956.9324       65.172       65.172       65.172    2.9656145    129.56946 
  453000    296.69427   -63462.894   -62932.772    5976.0115    5961.6933    5989.7025    5976.6387       65.172       65.172       65.172    2.9048377    129.48893 
  453500    296.12176   -63461.871   -62932.771     5984.828    5993.8981    5949.6134    6010.9725       65.172       65.172       65.172    2.7008928    129.45502 
  454000    300.29084   -63469.332   -62932.784    5933.4224    5934.7912    5963.1035    5902.3724       65.172       65.172       65.172    2.4379086    128.16958 
  454500    294.33969   -63458.676   -62932.761    6015.5547    6041.6146     6012.496    5992.5536       65.172       65.172       65.172    2.9027122    130.21072 
  455000    298.69738   -63466.477   -62932.775    5969.7149    5953.2292    6018.0867    5937.8287       65.172       65.172       65.172    2.6047729    129.03767 
  455500     299.2434   -63467.445   -62932.768    6010.2423    6050.1559    6018.3932    5962.1778       65.172       65.172       65.172    2.6301733    129.43118 
  456000    298.17853   -63465.546   -62932.772    5989.4456    5991.7996     6009.686    5966.8513       65.172       65.172       65.172    2.8468662    129.00896 
  456500    295.19461   -63460.204   -62932.761     6023.535    5986.3097    6081.2966    6002.9987       65.172       65.172       65.172    2.7178981    130.21063 
  457000     297.7545   -63464.792   -62932.776    5942.2258    5903.7761    5927.9892    5994.9121       65.172       65.172       65.172    3.1476967    128.82183 
  457500    298.64504   -63466.381   -62932.773    5934.0059    5960.0333    5917.2143    5924.7701       65.172       65.172       65.172    2.7727648    128.76264 
  458000    299.40622   -63467.741   -62932.773    5993.4863    6048.8078    5922.0074    6009.6437       65.172       65.172       65.172    2.5658337    128.94968 
  458500    300.22286   -63469.201   -62932.774    6033.9098     6062.571    6041.6493    5997.5091       65.172       65.172       65.172    2.9731796      129.014 
  459000    298.84894   -63466.742    -62932.77    5984.2405    5986.3857     5985.946    5980.3897       65.172       65.172       65.172    2.7971876    129.48667 
  459500    296.91441   -63463.286    -62932.77    5953.0311    5869.2895    5977.3324    6012.4713       65.172       65.172       65.172     2.680732    129.31408 
  460000    296.43747   -63462.434    -62932.77    5968.5075    5965.1821    5986.7473    5953.5931       65.172       65.172       65.172    2.5205544    129.40712 
  460500    295.46153    -63460.69   -62932.771    5969.4486    5961.3512    5982.6709    5964.3237       65.172       65.172       65.172     3.099957    129.44744 
  461000     297.9714   -63465.177   -62932.772    6035.3607    6029.0808    6031.6335    6045.3679       65.172       65.172       65.172    2.8259124    129.32313 
  461500    296.84903   -63463.173   -62932.774    5996.5847    5989.9877    6017.7943    5981.9721       65.172       65.172       65.172    2.8403121     129.3879 
  462000    300.71131   -63470.082   -62932.782    5986.6872    5957.8698    6057.1078    5945.0841       65.172       65.172       65.172    2.6027019    128.49691 
  462144    294.88134   -63459.649   -62932.766    6009.3499    5986.9854    6024.4837    6016.5805       65.172       65.172       65.172    2.7338172    130.13886 
Loop time of 493.413 on 12 procs for 262144 steps with 13824 atoms

Performance: 45.903 ns/day, 0.523 hours/ns, 531.287 timesteps/s
99.3% CPU use with 12 MPI tasks x 1 OpenMP threads

MPI task timing breakdown:
Section |  min time  |  avg time  |  max time  |%varavg| %total
---------------------------------------------------------------
Pair    | 274.02     | 326.48     | 437.57     | 289.5 | 66.17
Neigh   | 0          | 0          | 0          |   0.0 |  0.00
Comm    | 37.71      | 148.62     | 200.88     | 429.4 | 30.12
Output  | 12.168     | 13.246     | 14.304     |  18.4 |  2.68
Modify  | 1.1291     | 1.3624     | 1.8822     |  18.7 |  0.28
Other   |            | 3.706      |            |       |  0.75

Nlocal:        1152.00 ave        1170 max        1110 min
Histogram: 1 0 0 0 1 1 1 4 1 3
Nghost:        1621.00 ave        1663 max        1603 min
Histogram: 3 1 4 0 2 1 0 0 0 1
Neighs:         0.00000 ave           0 max           0 min
Histogram: 12 0 0 0 0 0 0 0 0 0
FullNghs:      32256.0 ave       32760 max       31080 min
Histogram: 1 0 0 0 1 1 1 4 1 3

Total # of neighbors = 387072
Ave neighs/atom = 28.000000
Neighbor list builds = 0
Dangerous builds = 0
unfix           NVE






Total wall time: 0:14:11
