ITEM: TIMESTEP
2
ITEM: NUMBER OF ATOMS
64
ITEM: BOX BOUNDS pp pp pp
  0.000000   10.861800
  0.000000   10.861800
  0.000000   10.861800
ITEM: ATOMS id type x y z
      1   0 -0.050280684  0.003505103  0.054303895
      2   0  5.413867829  0.043653791  0.046753966
      3   0 -0.042205370  5.438983134  0.030011696
      4   0  5.440524967  5.478240504 -0.031667904
      5   0  0.037999681  0.042418913  5.438666078
      6   0  5.447226697  0.025521971  5.401437802
      7   0 -0.067532807  5.416636284  5.422232392
      8   0  5.411966036  5.447730468  5.469394980
      9   0  4.104323384  1.296099600  4.085946739
     10   0  9.474965050  1.392738990  4.107572800
     11   0  4.082844066  6.766585756  4.082183994
     12   0  9.497678595  6.769222458  4.093495038
     13   0  4.076301243  1.372114387  9.492441469
     14   0  9.497869436  1.351740583  9.500426413
     15   0  4.094592732  6.809073751  9.506601455
     16   0  9.480550188  6.757958446  9.511310045
     17   0  0.016080135  2.705914860  2.685037720
     18   0  5.459213237  2.689926073  2.683722899
     19   0 -0.007044095  8.143051380  2.708451851
     20   0  5.446614852  8.143692226  2.732652702
     21   0  0.016997196  2.725484457  8.119877947
     22   0  5.429417364  2.723727452  8.158127450
     23   0 -0.013206320  8.133658204  8.150616841
     24   0  5.443484699  8.177871269  8.132727022
     25   0  4.097452644  4.102300808  1.329057343
     26   0  9.526464211  4.094127521  1.376140096
     27   0  4.079756382  9.472654202  1.373900284
     28   0  9.495512534  9.476985888  1.331505701
     29   0  4.038522382  4.079830568  6.780426839
     30   0  9.503103738  4.063843845  6.742661012
     31   0  4.096711000  9.463966283  6.784241395
     32   0  9.523316353  9.540194612  6.801364045
     33   0  2.724331694 -0.008947625  2.683564100
     34   0  8.139634692  0.010480116  2.740144737
     35   0  2.747817186  5.443233465  2.707175264
     36   0  8.115622620  5.451077966  2.675867103
     37   0  2.716939804 -0.026263072  8.138540909
     38   0  8.162000550  0.001868773  8.146150251
     39   0  2.718877115  5.459157624  8.198387689
     40   0  8.166741617  5.450595702  8.120596672
     41   0  1.346334665  1.372549728  1.378725747
     42   0  6.766350924  1.417840718  1.349756023
     43   0  1.380501869  6.751157112  1.336096115
     44   0  6.810864753  6.789594307  1.394036106
     45   0  1.373205020  1.348054305  6.747979384
     46   0  6.773504723  1.343759223  6.722821066
     47   0  1.351324576  6.766853174  6.777004503
     48   0  6.760221827  6.789234238  6.829381841
     49   0  2.706368775  2.705269561 -0.003704743
     50   0  8.134047817  2.708474335  0.009454654
     51   0  2.696986243  8.135891824 -0.006656002
     52   0  8.130162551  8.160567988  0.013004181
     53   0  2.745173859  2.691943436  5.426131670
     54   0  8.174260699  2.688300171  5.477213195
     55   0  2.688774723  8.131772270  5.444200491
     56   0  8.128410108  8.167673451  5.445291233
     57   0  1.352647869  4.055098575  4.064915687
     58   0  6.764385264  4.019740809  4.043940900
     59   0  1.370014258  9.498693087  4.084525364
     60   0  6.778781059  9.482873961  4.036225112
     61   0  1.388269142  4.039043097  9.524137831
     62   0  6.800080072  4.089029969  9.543269371
     63   0  1.368609718  9.506323501  9.510876442
     64   0  6.796066745  9.540004314  9.469725101
ITEM: TIMESTEP
3
ITEM: NUMBER OF ATOMS
64
ITEM: BOX BOUNDS pp pp pp
  0.000000   10.861800
  0.000000   10.861800
  0.000000   10.861800
ITEM: ATOMS id type x y z
      1   0 -0.072655884  0.005358778  0.078874807
      2   0  5.405662390  0.063635159  0.067852253
      3   0 -0.060658265  5.441691524  0.042671667
      4   0  5.446116187  5.501236346 -0.045341932
      5   0  0.054692422  0.061682967  5.440948468
      6   0  5.455241946  0.033824080  5.387483648
      7   0 -0.097217346  5.409297618  5.417364568
      8   0  5.403649047  5.453969051  5.487036932
      9   0  4.118632176  1.268330539  4.089578273
     10   0  9.463121995  1.408443089  4.122984608
     11   0  4.087421880  6.757295333  4.087353776
     12   0  9.492696939  6.761260759  4.102088351
     13   0  4.077223736  1.378044061  9.487156443
     14   0  9.495397942  1.349754611  9.498916840
     15   0  4.104902752  6.820779947  9.507450739
     16   0  9.469321693  6.744805132  9.515351395
     17   0  0.022586461  2.701870686  2.672316272
     18   0  5.469612759  2.678202824  2.669202085
     19   0 -0.009478658  8.140379377  2.705407506
     20   0  5.453161150  8.140933220  2.740927764
     21   0  0.025627331  2.729888265  8.106936981
     22   0  5.429430181  2.728232492  8.162394942
     23   0 -0.019299572  8.127319475  8.153028160
     24   0  5.449632803  8.192797121  8.127511294
     25   0  4.109508807  4.115816580  1.314827190
     26   0  9.535687617  4.103318124  1.384836705
     27   0  4.082865138  9.457368174  1.380659799
     28   0  9.490615166  9.464673277  1.321259113
     29   0  4.021961179  4.083522168  6.778183769
     30   0  9.502619302  4.059584933  6.722824541
     31   0  4.107495355  9.446285771  6.780647660
     32   0  9.533202655  9.557381890  6.806683286
     33   0  2.728523588 -0.013954806  2.669215010
     34   0  8.136330207  0.016037556  2.750547083
     35   0  2.763286345  5.447850273  2.703360491
     36   0  8.101846924  5.458729235  2.659434720
     37   0  2.718456872 -0.038768045  8.134232902
     38   0  8.168795910  0.004028859  8.144601576
     39   0  2.720364096  5.472095006  8.222753748
     40   0  8.175854994  5.458269781  8.108310456
     41   0  1.341257208  1.378277589  1.387545312
     42   0  6.757752832  1.444279752  1.346093750
     43   0  1.390401313  6.734004592  1.326458114
     44   0  6.819712775  6.791575825  1.409504504
     45   0  1.381835698  1.343943222  6.730234787
     46   0  6.766605633  1.337301014  6.694461666
     47   0  1.346479670  6.755529747  6.772185123
     48   0  6.747484086  6.790062994  6.848099981
     49   0  2.703297384  2.700230554 -0.004418363
     50   0  8.129831266  2.706442309  0.014025625
     51   0  2.688934391  8.130798835 -0.009705996
     52   0  8.121401966  8.166767686  0.017749050
     53   0  2.759578452  2.680427321  5.422456580
     54   0  8.185474095  2.676541295  5.497796197
     55   0  2.676771239  8.123849999  5.450139398
     56   0  8.119888483  8.177732673  5.452890583
     57   0  1.350591947  4.046987526  4.061112102
     58   0  6.753992042  3.995573956  4.031897879
     59   0  1.375170789  9.496867110  4.089266974
     60   0  6.774633372  9.474040711  4.019833243
     61   0  1.400719806  4.024510877  9.534049984
     62   0  6.805970860  4.097203148  9.560423846
     63   0  1.371698380  9.508068449  9.514951789
     64   0  6.798680094  9.558111695  9.455473767
ITEM: TIMESTEP
4
ITEM: NUMBER OF ATOMS
64
ITEM: BOX BOUNDS pp pp pp
  0.000000   10.861800
  0.000000   10.861800
  0.000000   10.861800
ITEM: ATOMS id type x y z
      1   0 -0.091917114  0.007536243  0.100426465
      2   0  5.397818867  0.081606984  0.086469378
      3   0 -0.076176845  5.443116266  0.052824192
      4   0  5.452577437  5.523383882 -0.056676655
      5   0  0.068799836  0.078790737  5.441217732
      6   0  5.463195933  0.037011909  5.374498474
      7   0 -0.122129971  5.401815901  5.411831567
      8   0  5.396559333  5.457831399  5.502922641
      9   0  4.131059161  1.244165098  4.089929001
     10   0  9.454408551  1.422155242  4.136145851
     11   0  4.091637345  6.749919084  4.093128887
     12   0  9.485665444  6.755394735  4.108786280
     13   0  4.077341586  1.382685416  9.482413747
     14   0  9.493509184  1.348960505  9.497632649
     15   0  4.114582463  6.834206761  9.507762147
     16   0  9.458712973  6.734070958  9.519797130
     17   0  0.027185891  2.698770729  2.662433554
     18   0  5.475510282  2.667990560  2.656505618
     19   0 -0.010820742  8.136582635  2.702816097
     20   0  5.458261309  8.136623475  2.748763792
     21   0  0.034339798  2.733635369  8.094444934
     22   0  5.430196590  2.733407597  8.165291784
     23   0 -0.024940431  8.120892765  8.155727970
     24   0  5.455651761  8.206762354  8.124187366
     25   0  4.121343716  4.128039147  1.300852181
     26   0  9.542665563  4.110949408  1.393017161
     27   0  4.085751335  9.442452967  1.386069519
     28   0  9.484989297  9.453536348  1.314283122
     29   0  4.006294010  4.087522026  6.778053862
     30   0  9.502044712  4.055722368  6.706781771
     31   0  4.116948814  9.431266725  6.775570963
     32   0  9.543436751  9.573427593  6.810935463
     33   0  2.732467291 -0.019522673  2.656667025
     34   0  8.133023006  0.021884680  2.758932175
     35   0  2.777919036  5.450742336  2.699852455
     36   0  8.090193625  5.463375479  2.647037279
     37   0  2.720783470 -0.050579601  8.129554073
     38   0  8.174802811  0.007686353  8.141457302
     39   0  2.721385974  5.483578318  8.245156210
     40   0  8.183880017  5.463492786  8.096746006
     41   0  1.337094749  1.382210321  1.394610261
     42   0  6.752205385  1.466570989  1.342649039
     43   0  1.398675941  6.718522943  1.318200865
     44   0  6.826033148  6.795523764  1.421835688
     45   0  1.391626633  1.340773423  6.715551806
     46   0  6.760583525  1.331642886  6.671186458
     47   0  1.339981815  6.743821270  6.768616587
     48   0  6.736436332  6.791581365  6.864935662
     49   0  2.701653885  2.694897519 -0.003929908
     50   0  8.127698443  2.705900305  0.018459086
     51   0  2.682113724  8.125841401 -0.012486399
     52   0  8.111744305  8.172025449  0.020453095
     53   0  2.773459941  2.669174930  5.417415618
     54   0  8.193492927  2.666756768  5.515476492
     55   0  2.666360204  8.115332066  5.455211532
     56   0  8.111910925  8.187145074  5.460867815
     57   0  1.349247582  4.039765950  4.057574414
     58   0  6.745435116  3.974241489  4.022641888
     59   0  1.379313914  9.495901496  4.092893946
     60   0  6.771580446  9.467084923  4.005770254
     61   0  1.410149478  4.012657830  9.543415353
     62   0  6.812125808  4.105552831  9.574805412
     63   0  1.372399075  9.510316625  9.519643761
     64   0  6.800118740  9.576267628  9.444354108
ITEM: TIMESTEP
5
ITEM: NUMBER OF ATOMS
64
ITEM: BOX BOUNDS pp pp pp
  0.000000   10.861800
  0.000000   10.861800
  0.000000   10.861800
ITEM: ATOMS id type x y z
      1   0 -0.107541704  0.010241048  0.118408392
      2   0  5.390419918  0.097282626  0.102135243
      3   0 -0.088075621  5.443074883  0.060106051
      4   0  5.460196230  5.544453928 -0.065182096
      5   0  0.079712035  0.093046089  5.439038964
      6   0  5.471017950  0.033854819  5.362666390
      7   0 -0.141301591  5.394208079  5.405492077
      8   0  5.390852652  5.458947557  5.516640117
      9   0  4.140969033  1.224336122  4.086244895
     10   0  9.449305786  1.433471066  4.146569160
     11   0  4.095353601  6.744853467  4.099586987
     12   0  9.476129544  6.752140974  4.113170754
     13   0  4.076527386  1.385789827  9.478157116
     14   0  9.492363047  1.349659570  9.496633581
     15   0  4.123460355  6.849763248  9.507250013
     16   0  9.448827215  6.726344525  9.524644751
     17   0  0.029445797  2.696963108  2.656134579
     18   0  5.475873717  2.659782841  2.646182998
     19   0 -0.011052207  8.131425995  2.700636677
     20   0  5.461414272  8.130380004  2.755967881
     21   0  0.043162186  2.736533840  8.082483919
     22   0  5.431821406  2.739441652  8.166557727
     23   0 -0.029976287  8.114529705  8.158785675
     24   0  5.461577416  8.219559727  8.123260855
     25   0  4.132823444  4.138746057  1.287139701
     26   0  9.546902860  4.116658261  1.400629110
     27   0  4.088353605  9.428069663  1.389866913
     28   0  9.478596584  9.443783864  1.311309596
     29   0  3.991731594  4.091787455  6.780469961
     30   0  9.501363677  4.052264406  6.695501901
     31   0  4.124695993  9.419377725  6.768615935
     32   0  9.554003979  9.587899312  6.813871082
     33   0  2.736109687 -0.025757347  2.646429561
     34   0  8.129789665  0.028073300  2.764958084
     35   0  2.791438284  5.451547847  2.696747610
     36   0  8.081188433  5.464294061  2.639648322
     37   0  2.724165291 -0.061485391  8.124433820
     38   0  8.179833888  0.013105305  8.136506277
     39   0  2.721875624  5.493258137  8.265045252
     40   0  8.190575339  5.465732924  8.086091775
     41   0  1.334208443  1.383850996  1.399515232
     42   0  6.750353230  1.483598381  1.339211931
     43   0  1.405006307  6.705158041  1.311654458
     44   0  6.829168624  6.801882804  1.430258797
     45   0  1.403004477  1.338897482  6.704651447
     46   0  6.755715049  1.327031074  6.654249545
     47   0  1.331636694  6.731690377  6.766607697
     48   0  6.727448084  6.793818896  6.879485260
     49   0  2.701776297  2.689143698 -0.001947738
     50   0  8.128109779  2.707268784  0.022602645
     51   0  2.676862261  8.121171370 -0.014881318
     52   0  8.101072152  8.176156843  0.020653495
     53   0  2.786723720  2.658388728  5.410781774
     54   0  8.197633120  2.659272119  5.529823626
     55   0  2.657867362  8.106152433  5.459235286
     56   0  8.104642535  8.195735563  5.469238244
     57   0  1.348859816  4.033488481  4.054287307
     58   0  6.739074446  3.956316261  4.016734046
     59   0  1.382339468  9.495926260  4.095134410
     60   0  6.770069461  9.462448020  3.994600413
     61   0  1.415927629  4.004027152  9.551964024
     62   0  6.818508201  4.114080647  9.585713266
     63   0  1.370287432  9.513088339  9.524956267
     64   0  6.800174895  9.594366754  9.437032495
ITEM: TIMESTEP
6
ITEM: NUMBER OF ATOMS
64
ITEM: BOX BOUNDS pp pp pp
  0.000000   10.861800
  0.000000   10.861800
  0.000000   10.861800
ITEM: ATOMS id type x y z
      1   0 -0.119109738  0.013662841  0.132405885
      2   0  5.383365831  0.110333295  0.114453611
      3   0 -0.095840178  5.441564007  0.064182702
      4   0  5.469152110  5.564335041 -0.070642975
      5   0  0.087081332  0.104090150  5.434201227
      6   0  5.478646300  0.023658304  5.352250249
      7   0 -0.154140781  5.386681612  5.398107900
      8   0  5.386668578  5.457184578  5.528138527
      9   0  4.147893757  1.209390394  4.078044671
     10   0  9.448238071  1.442031142  4.153779766
     11   0  4.098505478  6.742228821  4.106757730
     12   0  9.463910453  6.751879856  4.114938947
     13   0  4.074774400  1.387152549  9.474397195
     14   0  9.492100843  1.352077190  9.495922024
     15   0  4.131425747  6.867661214  9.505760208
     16   0  9.439634439  6.721901832  9.529767610
     17   0  0.029059877  2.696693518  2.653904434
     18   0  5.470015623  2.653980467  2.638666198
     19   0 -0.010164255  8.124671476  2.698953967
     20   0  5.462266163  8.121965368  2.762537750
     21   0  0.052086241  2.738456596  8.071234245
     22   0  5.434336348  2.746410366  8.166088606
     23   0 -0.034391717  8.108379102  8.162225824
     24   0  5.467455714  8.231138080  8.125055658
     25   0  4.143865006  4.147659142  1.273647391
     26   0  9.548033465  4.120090264  1.407739136
     27   0  4.090642730  9.414347734  1.391797489
     28   0  9.471268345  9.435456230  1.312742702
     29   0  3.978381139  4.096287607  6.785650822
     30   0  9.500541222  4.049086895  6.689660533
     31   0  4.130493370  9.410793644  6.759477903
     32   0  9.564936164  9.600478906  6.815284528
     33   0  2.739342267 -0.032744091  2.638804577
     34   0  8.126748144  0.034662393  2.768440052
     35   0  2.803662588  5.450010685  2.694086686
     36   0  8.075158287  5.461023573  2.637873504
     37   0  2.728658166 -0.071306196  8.118936555
     38   0  8.183702318  0.020483943  8.129546470
     39   0  2.721666968  5.500915923  8.282174962
     40   0  8.195798453  5.464845515  8.076506888
     41   0  1.332831275  1.382823687  1.402068190
     42   0  6.752707308  1.494708265  1.335644047
     43   0  1.409235566  6.694056847  1.307036781
     44   0  6.828845702  6.810814354  1.434338055
     45   0  1.416224048  1.338543930  6.698081687
     46   0  6.752008569  1.323540200  6.644435474
     47   0  1.321267042  6.719081022  6.766424458
     48   0  6.720888208  6.796730075  6.891464197
     49   0  2.703864913  2.683047947  0.001688358
     50   0  8.131429471  2.710874141  0.026280777
     51   0  2.673324790  8.116938309 -0.016783653
     52   0  8.089283623  8.179166322  0.018047532
     53   0  2.799329490  2.648342324  5.402452620
     54   0  8.197439019  2.654263960  5.540453418
     55   0  2.651421753  8.096275364  5.462114098
     56   0  8.098207896  8.203455805  5.477965483
     57   0  1.349672713  4.028236801  4.051225583
     58   0  6.735018215  3.942105768  4.014466971
     59   0  1.384172723  9.496938580  4.095774170
     60   0  6.770496330  9.460338985  3.986680423
     61   0  1.417728081  3.998907660  9.559636366
     62   0  6.825167571  4.122712411  9.592766376
     63   0  1.365189012  9.516390652  9.530862588
     64   0  6.798777742  9.612486409  9.433773846
ITEM: TIMESTEP
7
ITEM: NUMBER OF ATOMS
64
ITEM: BOX BOUNDS pp pp pp
  0.000000   10.861800
  0.000000   10.861800
  0.000000   10.861800
ITEM: ATOMS id type x y z
      1   0 -0.126694968  0.017717008  0.142217675
      2   0  5.376470000  0.120583793  0.123321945
      3   0 -0.099308677  5.438641965  0.064930537
      4   0  5.479405214  5.583025266 -0.072985213
      5   0  0.090768804  0.111864266  5.426584390
      6   0  5.486010927  0.006394559  5.343358019
      7   0 -0.160262818  5.379319593  5.389455390
      8   0  5.384081732  5.452419290  5.537286769
      9   0  4.151690282  1.199596743  4.065160512
     10   0  9.451433938  1.447800495  4.157552504
     11   0  4.100960788  6.741905357  4.114626887
     12   0  9.449012300  6.754761709  4.114018735
     13   0  4.072152687  1.386696353  9.471023412
     14   0  9.492874964  1.356332191  9.495447146
     15   0  4.138376213  6.887817021  9.503220502
     16   0  9.431133886  6.720870069  9.535037538
     17   0  0.025985227  2.698005841  2.655957858
     18   0  5.457817387  2.650886918  2.634129007
     19   0 -0.008112027  8.116234899  2.697785889
     20   0  5.460581606  8.111540538  2.768556816
     21   0  0.061099363  2.739370725  8.060968649
     22   0  5.437657995  2.754233143  8.163938621
     23   0 -0.038198235  8.102568800  8.166099033
     24   0  5.473142952  8.241633185  8.129584920
     25   0  4.154409207  4.154533032  1.260533831
     26   0  9.545885435  4.121041106  1.414338005
     27   0  4.092617296  9.401469332  1.391678226
     28   0  9.462969713  9.428611776  1.318826613
     29   0  3.966405896  4.100846848  6.793558430
     30   0  9.499655768  4.046223507  6.689559736
     31   0  4.134176064  9.405482550  6.748096366
     32   0  9.576185838  9.610846060  6.815068052
     33   0  2.742047181 -0.040622263  2.633915790
     34   0  8.124091239  0.041651310  2.769193969
     35   0  2.814494735  5.446006157  2.691824825
     36   0  8.071945149  5.453576397  2.641839364
     37   0  2.734303587 -0.079974456  8.113111371
     38   0  8.186333155  0.029898625  8.120569409
     39   0  2.720604359  5.506403848  8.296300625
     40   0  8.199495158  5.460812311  8.068216076
     41   0  1.333039822  1.378983824  1.402216779
     42   0  6.759463674  1.499541766  1.332091043
     43   0  1.411454197  6.685317008  1.304489037
     44   0  6.825094797  6.822012978  1.434024257
     45   0  1.431494327  1.339763602  6.695975041
     46   0  6.749308325  1.321149192  6.642123540
     47   0  1.308912288  6.705945087  6.768279219
     48   0  6.716960147  6.800253426  6.900693794
     49   0  2.707981861  2.676726271  0.007014659
     50   0  8.137888658  2.716961202  0.029376173
     51   0  2.671454931  8.113283096 -0.018148656
     52   0  8.076495592  8.181154683  0.012474886
     53   0  2.811264327  2.639202554  5.392398178
     54   0  8.192673839  2.651859592  5.547158407
     55   0  2.647003933  8.085713893  5.463876316
     56   0  8.092727574  8.210310144  5.487069409
     57   0  1.351880700  4.024053922  4.048412160
     58   0  6.733243940  3.931955633  4.016019665
     59   0  1.384786306  9.498815608  4.094702653
     60   0  6.773056565  9.460674180  3.982089249
     61   0  1.415468393  3.997579479  9.566424013
     62   0  6.832051563  4.131315934  9.595585448
     63   0  1.357042227  9.520212919  9.537247154
     64   0  6.795952696  9.630588141  9.434899454
ITEM: TIMESTEP
8
ITEM: NUMBER OF ATOMS
64
ITEM: BOX BOUNDS pp pp pp
  0.000000   10.861800
  0.000000   10.861800
  0.000000   10.861800
ITEM: ATOMS id type x y z
      1   0 -0.130370818  0.022338595  0.147796187
      2   0  5.369786300  0.127814711  0.128532241
      3   0 -0.098614825  5.434202748  0.062425806
      4   0  5.490759163  5.600419352 -0.072410841
      5   0  0.091003745  0.116403738  5.416385920
      6   0  5.492773049 -0.017324897  5.336044226
      7   0 -0.159751879  5.372325028  5.379417566
      8   0  5.383138928  5.444733371  5.544092230
      9   0  4.152565525  1.194758680  4.047764362
     10   0  9.458745667  1.450706353  4.157728791
     11   0  4.102526082  6.743595670  4.123151445
     12   0  9.431603224  6.760722556  4.110584451
     13   0  4.068730351  1.384557013  9.467880658
     14   0  9.494820095  1.362540470  9.495067635
     15   0  4.144131229  6.910030923  9.499705624
     16   0  9.423248653  6.723274111  9.540267495
     17   0  0.020455376  2.700741276  2.662232394
     18   0  5.439697949  2.650524025  2.632294123
     19   0 -0.004936579  8.106186539  2.697247904
     20   0  5.456281854  8.099337740  2.774038658
     21   0  0.070201225  2.739159897  8.052012117
     22   0  5.441642103  2.762824610  8.160225515
     23   0 -0.041405507  8.097224360  8.170403456
     24   0  5.478591231  8.251308877  8.136676155
     25   0  4.164353077  4.159306902  1.247862129
     26   0  9.540489185  4.119518390  1.420424197
     27   0  4.094354098  9.389471931  1.389593738
     28   0  9.453894027  9.423275265  1.329410243
     29   0  3.955832476  4.105349933  6.804109365
     30   0  9.498888491  4.043597776  6.695162252
     31   0  4.135728541  9.403231876  6.734609160
     32   0  9.587563248  9.618729445  6.813240337
     33   0  2.744135471 -0.049418149  2.631745276
     34   0  8.122009358  0.048979115  2.767208649
     35   0  2.823787440  5.439546536  2.689980165
     36   0  8.071163426  5.442350727  2.651341158
     37   0  2.740971646 -0.087418047  8.107129669
     38   0  8.187705326  0.041273211  8.109787117
     39   0  2.718597315  5.509703988  8.307322202
     40   0  8.201634715  5.453787550  8.061520863
     41   0  1.334792156  1.372384846  1.400204414
     42   0  6.770381847  1.498159167  1.328929065
     43   0  1.411706517  6.678955686  1.304042617
     44   0  6.818395456  6.834945255  1.429663353
     45   0  1.448755356  1.342299615  6.698203556
     46   0  6.747365367  1.319764638  6.647321671
     47   0  1.294822361  6.692451038  6.772297651
     48   0  6.715830846  6.804204840  6.906978540
     49   0  2.714045461  2.670454342  0.013834240
     50   0  8.147519490  2.725564400  0.031805414
     51   0  2.671143089  8.110381258 -0.018968830
     52   0  8.062818087  8.182457556  0.004017454
     53   0  2.822404081  2.631232599  5.380699584
     54   0  8.183385588  2.652099638  5.549668243
     55   0  2.644405682  8.074534820  5.464525091
     56   0  8.088355808  8.216267515  5.496478009
     57   0  1.355640186  4.020907584  4.045789795
     58   0  6.733579679  3.925938956  4.021411354
     59   0  1.384159363  9.501319035  4.091920729
     60   0  6.777924715  9.463156753  3.980709909
     61   0  1.409260331  4.000046519  9.572307198
     62   0  6.839169409  4.139831260  9.594139090
     63   0  1.345924415  9.524523207  9.543991572
     64   0  6.791884300  9.648827710  9.440420073
ITEM: TIMESTEP
9
ITEM: NUMBER OF ATOMS
64
ITEM: BOX BOUNDS pp pp pp
  0.000000   10.861800
  0.000000   10.861800
  0.000000   10.861800
ITEM: ATOMS id type x y z
      1   0 -0.130494317  0.027242263  0.149153477
      2   0  5.363456368  0.131858233  0.130087217
      3   0 -0.093908190  5.428248526  0.056774629
      4   0  5.502945016  5.616398363 -0.069400928
      5   0  0.088324356  0.117906468  5.404045394
      6   0  5.498595191 -0.046394875  5.330224148
      7   0 -0.152983891  5.365800888  5.367964993
      8   0  5.383927711  5.434306586  5.548636264
      9   0  4.150985568  1.194365483  4.026513468
     10   0  9.469680024  1.450903494  4.154360329
     11   0  4.103030178  6.746869743  4.132248094
     12   0  9.411979970  6.769423401  4.105046563
     13   0  4.064745374  1.380825007  9.464780592
     14   0  9.498043877  1.370718320  9.494629036
     15   0  4.148565559  6.933729524  9.495335487
     16   0  9.415823744  6.728872609  9.545280976
     17   0  0.012898931  2.704576686  2.672362760
     18   0  5.416673649  2.652854316  2.632681020
     19   0 -0.000734909  8.094622090  2.697376942
     20   0  5.449604997  8.085924177  2.779208440
     21   0  0.079408230  2.737843230  8.044677361
     22   0  5.446065354  2.772070174  8.155188464
     23   0 -0.043998871  8.092535429  8.175205349
     24   0  5.483776329  8.260511863  8.146052495
     25   0  4.173502948  4.161940562  1.235737645
     26   0  9.532200871  4.115720996  1.425944381
     27   0  4.095935685  9.378444923  1.385642759
     28   0  9.444088972  9.419563896  1.344220633
     29   0  3.946838689  4.109634913  6.817063908
     30   0  9.498369405  4.041061980  6.705981474
     31   0  4.135162641  9.403658745  6.719248294
     32   0  9.598942613  9.623990250  6.809889798
     33   0  2.745461588 -0.059159011  2.632088835
     34   0  8.120728426  0.056556632  2.762539813
     35   0  2.831480635  5.430763684  2.688441374
     36   0  8.072052790  5.427987082  2.665888041
     37   0  2.748443586 -0.093682808  8.101173384
     38   0  8.187809816  0.054394048  8.097626246
     39   0  2.715679510  5.511019135  8.315383395
     40   0  8.202268610  5.444103713  8.056701591
     41   0  1.337845408  1.363299059  1.396418642
     42   0  6.784822718  1.491068150  1.326602141
     43   0  1.410144481  6.674950398  1.305797124
     44   0  6.809445115  6.848940141  1.421824066
     45   0  1.467745150  1.345648308  6.704321791
     46   0  6.745766727  1.319162243  6.659653399
     47   0  1.279287597  6.678878785  6.778427290
     48   0  6.717422642  6.808369363  6.910299535
     49   0  2.721799265  2.664434406  0.021818641
     50   0  8.160246044  2.736749229  0.033391889
     51   0  2.672108594  8.108429610 -0.019230708
     52   0  8.048482032  8.183500615 -0.007206044
     53   0  2.832613956  2.624731377  5.367647937
     54   0  8.169851134  2.655012229  5.547813917
     55   0  2.643279747  8.062908132  5.464192286
     56   0  8.085173084  8.221428391  5.506094069
     57   0  1.361146467  4.018823096  4.043301900
     58   0  6.735597584  3.923902260  4.030595115
     59   0  1.382385848  9.504128875  4.087510078
     60   0  6.785062547  9.467280653  3.982180922
     61   0  1.399311356  4.005944585  9.577396495
     62   0  6.846525128  4.148307808  9.588446638
     63   0  1.332164361  9.529230712  9.550868938
     64   0  6.786796199  9.667261271  9.450229907
ITEM: TIMESTEP
10
ITEM: NUMBER OF ATOMS
64
ITEM: BOX BOUNDS pp pp pp
  0.000000   10.861800
  0.000000   10.861800
  0.000000   10.861800
ITEM: ATOMS id type x y z
      1   0 -0.127503412  0.031978117  0.146409461
      2   0  5.357621844  0.132737061  0.128072570
      3   0 -0.085632259  5.420874993  0.048255067
      4   0  5.515492676  5.630847599 -0.064540598
      5   0  0.083489552  0.116720251  5.390224623
      6   0  5.503045162 -0.079219344  5.325856401
      7   0 -0.140724720  5.359813103  5.355149590
      8   0  5.386442110  5.421486512  5.551072023
      9   0  4.147534122  1.197725364  4.002247772
     10   0  9.483465386  1.448643588  4.147702046
     11   0  4.102385747  6.751023295  4.141812561
     12   0  9.390752429  6.780501351  4.097872669
     13   0  4.060362312  1.375745487  9.461564847
     14   0  9.502690989  1.380870410  9.494008501
     15   0  4.151590136  6.958144570  9.490241629
     16   0  9.408762271  6.737269215  9.549853685
     17   0  0.003971834  2.709179917  2.685720928
     18   0  5.390229728  2.657690966  2.634661126
     19   0  0.004243814  8.081755962  2.698256965
     20   0  5.440855709  8.072011080  2.784251683
     21   0  0.088681057  2.735455372  8.039348562
     22   0  5.450568982  2.781726205  8.149197855
     23   0 -0.046031439  8.088724241  8.180530455
     24   0  5.488669895  8.269681937  8.157199418
     25   0  4.181790719  4.162519605  1.224251509
     26   0  9.521570210  4.109981187  1.430757788
     27   0  4.097303728  9.368539830  1.379919242
     28   0  9.433755272  9.417514709  1.362629103
     29   0  3.939517510  4.113393747  6.832015393
     30   0  9.498311729  4.038486756  6.721143461
     31   0  4.132591327  9.406206598  6.702525575
     32   0  9.609972554  9.626465219  6.805145363
     33   0  2.745936140 -0.069872439  2.634646137
     34   0  8.120496961  0.064247330  2.755406652
     35   0  2.837554119  5.419878966  2.687087016
     36   0  8.073743429  5.411393076  2.684630511
     37   0  2.756520747 -0.098959144  8.095457579
     38   0  8.186841378  0.068998172  8.084531260
     39   0  2.711831391  5.510637777  8.320587718
     40   0  8.201450825  5.432354286  8.054066083
     41   0  1.341956816  1.352125199  1.391471961
     42   0  6.801921364  1.479065535  1.325590582
     43   0  1.407023452  6.673144189  1.309770913
     44   0  6.799191576  6.862994441  1.411514046
     45   0  1.487879125  1.349367497  6.713671520
     46   0  6.743929019  1.319094248  6.678424979
     47   0  1.262700325  6.665480320  6.786508904