LAMMPS (29 Sep 2021 - Update 2)
  using 1 OpenMP thread(s) per MPI task

# ----------------------- set up calc -------------------------

### units
atom_style      atomic
units           metal

### periodicity
dimension       3
boundary        p p p
processors      * * *

### read structure
read_data	si_12x12x12.supercell
Reading data file ...
  orthogonal box = (0.0000000 0.0000000 0.0000000) to (65.172000 65.172000 65.172000)
  2 by 2 by 2 MPI processor grid
  reading atoms ...
  13824 atoms
  read_data CPU = 0.009 seconds

### potential
pair_style      tersoff
pair_coeff      * * SiCGe.tersoff Si(D)
Reading tersoff potential file SiCGe.tersoff with DATE: 2009-03-18

### timestep and temp
timestep        0.001
variable        T equal 300

### what to print and how often
thermo_style    custom step temp pe etotal press pxx pyy pzz lx ly lz fmax fnorm
thermo          500

dump            TRJ all custom 500 sim.lammpstrj id type x y z
dump_modify     TRJ sort id

# -------------------- equilibration ------------------------

### NVT thermalization
velocity        all create ${T} 123456 mom yes rot yes dist gaussian
velocity        all create 300 123456 mom yes rot yes dist gaussian
fix             NVT all nvt temp ${T} ${T} $(dt*100) tchain 10
fix             NVT all nvt temp 300 ${T} $(dt*100) tchain 10
fix             NVT all nvt temp 300 300 $(dt*100) tchain 10
fix             NVT all nvt temp 300 300 0.10000000000000000555 tchain 10
run             100000
Neighbor list info ...
  update every 1 steps, delay 10 steps, check yes
  max neighbors/atom: 2000, page size: 100000
  master list distance cutoff = 5
  ghost atom cutoff = 5
  binsize = 2.5, bins = 27 27 27
  1 neighbor lists, perpetual/occasional/extra = 1 0 0
  (1) pair tersoff, perpetual
      attributes: full, newton on
      pair build: full/bin/atomonly
      stencil: full/bin/3d
      bin: standard
Per MPI rank memory allocation (min/avg/max) = 4.607 | 4.607 | 4.607 Mbytes
Step Temp PotEng TotEng Press Pxx Pyy Pzz Lx Ly Lz Fmax Fnorm 
       0          300   -63999.495   -63463.467    2611.7864    2618.5834    2630.8791    2585.8967       65.172       65.172       65.172 7.7951534e-14 7.5107956e-12 
     500    174.10023   -63641.518   -63330.442     4111.894    4108.2989    4138.1759    4089.2072       65.172       65.172       65.172    2.1932808    107.86908 
    1000    231.11073   -63600.336   -63187.396    4632.3314    4655.5319    4647.4628    4593.9994       65.172       65.172       65.172    2.4267404    110.37799 
    1500    248.91869   -63501.945   -63057.186    5425.8875    5453.3472    5388.7592     5435.556       65.172       65.172       65.172    2.6799425    124.32426 
    2000    284.94141   -63471.141   -62962.019    5753.4467    5732.1626    5808.2339    5719.9435       65.172       65.172       65.172    2.6416983    127.58866 
    2500    303.75291   -63462.003   -62919.268    6221.2289    6188.6181    6271.6033    6203.4653       65.172       65.172       65.172    2.6181331    130.71146 
    3000    298.77846   -63458.281   -62924.435    6036.1637    6003.2057    6046.5349    6058.7505       65.172       65.172       65.172    2.6579932    129.65758 
    3500     313.4081   -63475.153   -62915.167    6015.1728      6042.02    5985.5043    6017.9942       65.172       65.172       65.172     2.759927    128.10822 
    4000    302.45931   -63452.888   -62912.465    5992.6757    5996.8514    5980.0853    6001.0904       65.172       65.172       65.172    2.7214656    129.74644 
    4500    301.98431   -63462.771   -62923.197    6006.7508    6073.9455    5975.7953    5970.5117       65.172       65.172       65.172     2.596396    129.25222 
    5000    289.81914    -63440.64   -62922.802    6086.8839    6068.2599    6045.1831    6147.2085       65.172       65.172       65.172    3.0430203    132.29324 
    5500    297.21749   -63450.579   -62919.522    6071.4228    6079.4642    6045.2217    6089.5826       65.172       65.172       65.172    3.1221569    130.55365 
    6000    300.82899   -63457.359   -62919.849     6113.813    6106.1704    6154.4869    6080.7816       65.172       65.172       65.172    2.4865831    130.05486 
    6500    302.59942   -63463.033    -62922.36    5996.3489    6009.3418    5977.4532    6002.2515       65.172       65.172       65.172    2.7778792    129.37081 
    7000    307.43013   -63479.188   -62929.883    6062.1708    6071.0319    6071.8743    6043.6062       65.172       65.172       65.172    2.5010557    127.56181 
    7500    298.96426   -63459.417   -62925.239    5979.0075    6036.0701    5966.7475     5934.205       65.172       65.172       65.172    2.7075108    129.59374 
    8000    298.13029   -63453.642   -62920.954    6044.0461    6001.5073    6055.3838    6075.2473       65.172       65.172       65.172    2.7164776    130.23754 
    8500    300.06482   -63451.458   -62915.313    6033.3772    6055.6344    6057.0057    5987.4916       65.172       65.172       65.172    2.6397481    130.19205 
    9000    295.80931   -63450.679   -62922.137    5975.4098    5961.2168    5945.8827      6019.13       65.172       65.172       65.172    2.8798669    129.95156 
    9500    297.68538   -63464.491   -62932.598    5996.3962    6006.2488    6009.6466    5973.2933       65.172       65.172       65.172    2.6042047    129.13293 
   10000    298.54029   -63463.609   -62930.188    5967.0703    5925.6886    5962.7313    6012.7911       65.172       65.172       65.172    2.7257997    129.11458 
   10500    302.10733   -63464.615   -62924.821    6073.4613    5992.7642    6134.7869    6092.8328       65.172       65.172       65.172    2.9096474     130.2214 
   11000    296.63182   -63446.666   -62916.655    6078.2861    6105.4067    6023.7762    6105.6753       65.172       65.172       65.172    2.7629279    130.67913 
   11500    296.32931   -63446.475   -62917.005    5977.6086    5974.0136    6012.6875    5946.1246       65.172       65.172       65.172    2.7170193    130.68612 
   12000    303.90047   -63465.879   -62922.881    6056.7827    6064.2523     6048.059    6058.0369       65.172       65.172       65.172     2.906946    129.76861 
   12500    296.76272   -63451.784   -62921.539    5992.8336    5959.8967    6043.6024    5975.0018       65.172       65.172       65.172    2.6862256    130.43026 
   13000    305.86007   -63460.304   -62913.804    6118.6237    6192.3528    6016.9021    6146.6162       65.172       65.172       65.172    2.8262562    130.30306 
   13500     302.4853     -63457.2    -62916.73    6152.4145    6177.1263    6106.1633    6173.9538       65.172       65.172       65.172    2.8011713    130.81978 
   14000    296.73318   -63449.513   -62919.321    6040.5286    6043.0927    6032.3231    6046.1699       65.172       65.172       65.172    2.8568623    130.68141 
   14500    304.77121   -63468.525   -62923.971    6067.9842    6032.8584    6053.0402    6118.0541       65.172       65.172       65.172    2.8962966     129.4379 
   15000    288.83113   -63445.079   -62929.007    5872.7236    5910.7025    5875.7115    5831.7568       65.172       65.172       65.172    2.5436696    130.70374 
   15500    299.07133   -63462.631   -62928.261    6042.6033    6030.9119    6044.9693    6051.9287       65.172       65.172       65.172    3.0717351    129.81982 
   16000    298.41835   -63452.929   -62919.726    6088.3499    6141.5379     6090.769    6032.7429       65.172       65.172       65.172    2.6932594    131.06804 
   16500    304.34471   -63461.297   -62917.505    6149.9035     6175.207    6175.7003    6098.8031       65.172       65.172       65.172     2.749544    130.37103 
   17000    298.17775   -63454.538   -62921.765    6062.9175    6056.1238    6071.6645    6060.9643       65.172       65.172       65.172     2.706099    130.89814 
   17500    299.53963    -63459.27   -62924.064    6017.8655    5964.7551    6061.5753    6027.2659       65.172       65.172       65.172    2.8426456    130.18792 
   18000    300.89631   -63455.947   -62918.316    6144.9116    6154.9107    6115.8377    6163.9864       65.172       65.172       65.172    2.6364624     131.0967 
   18500    301.15609   -63452.586   -62914.491    6038.2683    6025.6866    6082.7325    6006.3857       65.172       65.172       65.172    2.5113231     130.5101 
   19000    307.74907   -63466.632   -62916.758    6184.9171    6158.8612    6213.0635    6182.8266       65.172       65.172       65.172     2.995772    130.09769 
   19500    297.86804   -63456.912   -62924.692    6046.6936    5997.6328    6111.0896    6031.3582       65.172       65.172       65.172    2.8870811    130.17284 
   20000    298.28665   -63453.778    -62920.81    6106.7849    6072.2707     6136.262     6111.822       65.172       65.172       65.172    3.0569941    131.05512 
   20500    303.61244   -63452.696   -62910.213    6166.9748    6205.4276    6147.7178    6147.7789       65.172       65.172       65.172    2.7752385    131.09937 
   21000    295.77791   -63452.277   -62923.792    6084.2153    6081.9967    6083.9607    6086.6885       65.172       65.172       65.172    2.7857368    131.22319 
   21500    298.73708   -63459.456   -62925.684    6036.6942    6038.8841    6063.9971    6007.2016       65.172       65.172       65.172    2.9462066    130.00444 
   22000    298.80962    -63456.06   -62922.158    6079.6018    6069.9349    6112.4933    6056.3772       65.172       65.172       65.172     2.798432    130.59744 
   22500    300.85927   -63454.137   -62916.573    6113.1184     6123.781    6147.9231     6067.651       65.172       65.172       65.172    2.7419499    130.85019 
   23000    300.50963   -63458.416   -62921.476     5986.853     5924.011    6033.2519    6003.2959       65.172       65.172       65.172    2.7529334    129.35606 
   23500    296.57764   -63457.196   -62927.282    6025.8172    6064.6733    5989.7756    6023.0026       65.172       65.172       65.172    2.9113962    130.60891 
   24000    300.43548    -63456.79   -62919.983    6093.0127    6031.8142    6139.4651    6107.7589       65.172       65.172       65.172    2.9372315    130.26789 
   24500    299.24829   -63456.026    -62921.34    6056.4252    6064.7292    6027.8453    6076.7013       65.172       65.172       65.172    2.8061289    130.19169 
   25000    299.95413   -63464.557    -62928.61    6053.6489     6054.505    5998.9776    6107.4642       65.172       65.172       65.172    2.8286895    129.67925 
   25500     298.9711    -63459.58   -62925.389    6125.7108     6167.633    6110.9542    6098.5452       65.172       65.172       65.172     3.147936    130.46168 
   26000    298.11778   -63454.585   -62921.919    6063.4639    6099.1312    6025.3291    6065.9313       65.172       65.172       65.172    2.7087626     130.5974 
   26500    302.91292   -63458.484    -62917.25    6099.4935    6120.9608    6083.9272    6093.5924       65.172       65.172       65.172    2.9812789    130.30887 
   27000    301.55538   -63461.183   -62922.375    6108.9104    6096.6111    6064.2382    6165.8819       65.172       65.172       65.172    3.0237457    130.36742 
   27500    296.02851   -63459.855   -62930.922    6001.6098    5998.5665    5954.2856    6051.9773       65.172       65.172       65.172    2.9391263    130.07009 
   28000    297.24478   -63457.523   -62926.417    6023.5422    6031.3389    6040.2078    5999.0799       65.172       65.172       65.172    2.8392139    130.67327 
   28500    301.50371   -63458.445   -62919.729    6041.6887    6066.5226    6042.9376    6015.6061       65.172       65.172       65.172    2.6866312    129.81192 
   29000     301.2466   -63453.986   -62915.729    6093.1492    6073.4776    6114.9962    6090.9736       65.172       65.172       65.172    2.6429198    130.58597 
   29500     297.9527   -63455.153   -62922.782    6089.0404    6046.8262    6108.8436    6111.4516       65.172       65.172       65.172    2.5930394    130.71866 
   30000    293.63932   -63458.435   -62933.771    6031.4233    6009.9492     6007.493    6076.8276       65.172       65.172       65.172    2.8086067    130.00564 
   30500    302.77793   -63460.209   -62919.216     6079.564    6077.6603    6071.5612    6089.4705       65.172       65.172       65.172    2.8065852    130.10619 
   31000    299.37821   -63466.914   -62931.996    6025.0159    6081.1815    5999.5979    5994.2682       65.172       65.172       65.172    2.9794883    129.48108 
   31500     295.0884   -63460.312   -62933.059    5992.7818    6013.0545    5953.5104    6011.7806       65.172       65.172       65.172    2.7235953    130.17927 
   32000    299.08485   -63453.641   -62919.247     6090.071    6104.0244    6086.1641    6080.0246       65.172       65.172       65.172    2.8589401    131.11188 
   32500    301.12902   -63457.236    -62919.19    6046.3312    6009.7002    6065.1557    6064.1377       65.172       65.172       65.172    3.2047105    130.66666 
   33000     300.0936   -63460.454   -62924.258    6061.5322    6060.9942    6062.2469    6061.3557       65.172       65.172       65.172    2.7300367    130.23548 
   33500    303.04131   -63459.834   -62918.371    6066.4997    6067.4867    6060.0291    6071.9833       65.172       65.172       65.172    2.6531623    130.12306 
   34000     298.3231   -63454.542   -62921.509     6025.788    6069.5305    6015.4567    5992.3767       65.172       65.172       65.172    2.6816432    130.16911 
   34500    298.56875   -63458.773   -62925.302    6049.2962    6072.6997    6028.2358    6046.9531       65.172       65.172       65.172     2.712875    130.42976 
   35000    303.11254   -63460.468   -62918.878    6079.5065    6085.2916     6169.318    5983.9099       65.172       65.172       65.172    2.6342301    130.01484 
   35500    299.19413   -63454.672   -62920.083    6120.2175    6063.0651     6140.245    6157.3424       65.172       65.172       65.172    2.8030344    130.97743 
   36000    300.13637   -63455.215   -62918.942    6055.3079     6070.173    6000.8512    6094.8995       65.172       65.172       65.172    2.6525064    130.08338 
   36500    301.11752   -63460.478   -62922.453     6058.842    6078.2942    6034.5923    6063.6394       65.172       65.172       65.172    2.7703611    130.43091 
   37000    297.65906   -63457.662   -62925.816    6011.7182    6004.9304    6030.8232     5999.401       65.172       65.172       65.172    2.6423756      130.125 
   37500    297.80135    -63456.01    -62923.91    6039.0405    6065.4923    6018.3947    6033.2346       65.172       65.172       65.172    2.6078707    130.40205 
   38000    304.55901   -63457.076   -62912.901    6112.5357    6158.8645    6075.0369    6103.7058       65.172       65.172       65.172    2.9134855    130.48992 
   38500    298.36266   -63460.912   -62927.809    6007.2797    5992.3777    6029.0674    6000.3939       65.172       65.172       65.172    2.5392532    129.54429 
   39000    299.61329   -63461.943   -62926.605    6030.5916    5977.6967    6078.2757    6035.8025       65.172       65.172       65.172    2.6026295    129.76059 
   39500    301.01934   -63458.051     -62920.2    6088.5146    6056.1063    6112.9384     6096.499       65.172       65.172       65.172    2.8815374    131.00695 
   40000    301.06142   -63455.491   -62917.565    6096.6458     6115.103    6117.5052    6057.3293       65.172       65.172       65.172    3.0670528    130.59963 
   40500     299.8668   -63457.482   -62921.691     6072.113    6036.3545    6102.0293    6077.9554       65.172       65.172       65.172    3.0463993    130.23453 
   41000    294.77344   -63454.717   -62928.027    6014.7346     6042.275    5998.1287    6003.8001       65.172       65.172       65.172    2.8138141    130.71149 
   41500    298.39258   -63461.658   -62928.501    6047.6686    6040.0313    6037.2072    6065.7675       65.172       65.172       65.172    2.6674297    129.69096 
   42000    299.55576   -63457.437   -62922.202    6060.1767    6061.1738    6055.7955    6063.5606       65.172       65.172       65.172    2.9026349     130.2431 
   42500    300.34433   -63453.403   -62916.759    6040.6852    6049.7358    6059.3309    6012.9888       65.172       65.172       65.172    3.1058145    130.44687 
   43000    297.88139   -63451.382   -62919.139    6020.0747    6001.3255    6025.0256    6033.8729       65.172       65.172       65.172    3.1993711    130.62159 
   43500    300.75382   -63462.942   -62925.566    6088.1972    6072.6371    6076.8303    6115.1243       65.172       65.172       65.172    2.5078433    129.97328 
   44000    298.26027   -63456.822   -62923.901     6054.623    6038.9752    6079.8978     6044.996       65.172       65.172       65.172    2.9685295    130.65663 
   44500    302.05589   -63461.005   -62921.303    6065.6593    6078.5999    6030.6395    6087.7385       65.172       65.172       65.172    2.7671008    130.13959 
   45000    303.57362   -63456.276   -62913.862    6052.7451    6039.1738      6081.31    6037.7517       65.172       65.172       65.172    2.6419283    130.32093 
   45500     303.1461    -63452.75     -62911.1    6113.5032    6128.1141    6095.7326    6116.6629       65.172       65.172       65.172    2.8478174    130.89364 
   46000    297.36358   -63455.712   -62924.394    6023.3041    5995.4805    6077.9363    5996.4954       65.172       65.172       65.172     2.854542    130.25188 
   46500    299.05943   -63463.881   -62929.532     6043.826      6088.95     6000.846     6041.682       65.172       65.172       65.172    2.8614304    129.99003 
   47000    300.16298   -63458.489   -62922.168     6032.747    6059.3343    6059.2541    5979.6526       65.172       65.172       65.172    2.8535587    130.37347 
   47500    294.77832   -63456.626   -62929.927      6018.16    5999.4764    6061.4877    5993.5158       65.172       65.172       65.172    2.7625889    130.62258 
   48000    299.44479   -63458.878   -62923.842    6050.9341    5994.9614    6057.7413    6100.0997       65.172       65.172       65.172    2.6477221    130.08776 
   48500    300.26657   -63455.923   -62919.418    6071.0721    6045.8863    6103.8329    6063.4972       65.172       65.172       65.172    2.5398957    130.50331 
   49000    301.56024   -63456.328   -62917.511    6077.6355    6013.1327    6098.6497    6121.1241       65.172       65.172       65.172     3.044568    130.64166 
   49500      301.087    -63461.86   -62923.889    6035.5733    6010.6821    6065.6075    6030.4302       65.172       65.172       65.172    2.8791643    130.03531 
   50000    298.42715    -63464.37   -62931.151    6016.4626    6060.2736    5994.1056    5995.0088       65.172       65.172       65.172    2.7743886    129.90436 
   50500    297.75673   -63457.089   -62925.068    6093.1458    6092.5827    6089.2167     6097.638       65.172       65.172       65.172     2.611414    130.29361 
   51000    299.65444   -63454.683   -62919.272    5992.1459    6050.2919    5938.9216    5987.2241       65.172       65.172       65.172    2.9148449    130.15258 
   51500    300.25694   -63458.788     -62922.3    6065.7178    6120.6819    6006.3635     6070.108       65.172       65.172       65.172    2.9558266    130.38035 
   52000     297.3963   -63458.295   -62926.918    5991.0838    5982.5497    5990.6086     6000.093       65.172       65.172       65.172    2.7779686      130.099 
   52500    300.77405   -63460.791   -62923.379    6084.5045    6084.2697    6053.8344    6115.4094       65.172       65.172       65.172    2.9775455    129.93524 
   53000    299.11997   -63458.772   -62924.315    6041.5265    6045.3565    6013.3797    6065.8433       65.172       65.172       65.172    2.6417534    130.25535 
   53500     301.1782   -63456.084    -62917.95    6106.4661    6126.8096    6078.4936    6114.0951       65.172       65.172       65.172    3.0699092    130.61364 
   54000    302.18691   -63459.278   -62919.342    6063.0426    6074.4348    6072.1999     6042.493       65.172       65.172       65.172    3.0453183    130.33564 
   54500     300.0812   -63460.213   -62924.039    5989.2794    6008.4438    5980.1773     5979.217       65.172       65.172       65.172    2.8703032    129.74009 
   55000    297.20885   -63454.316   -62923.274    6052.9638    6049.4058    6093.1808    6016.3048       65.172       65.172       65.172    2.8899066     130.8787 
   55500    299.50981   -63459.471   -62924.318    6077.0933    6036.7434    6063.5533    6130.9834       65.172       65.172       65.172    3.2239642    130.72446 
   56000    301.83932   -63457.298   -62917.982       6099.5    6017.9147    6153.0924    6127.4929       65.172       65.172       65.172    2.6310568    130.61063 
   56500    300.11866   -63451.001    -62914.76    6052.4363    6038.5021    6063.1528     6055.654       65.172       65.172       65.172    2.8314792    130.39343 
   57000    305.01875   -63457.035   -62912.039    6157.4165    6138.5861    6205.2476    6128.4158       65.172       65.172       65.172    2.8260491    130.84691 
   57500    305.24279   -63463.985   -62918.588    6116.6401    6096.3058    6173.5836    6080.0307       65.172       65.172       65.172    2.8039825    130.24857 
   58000    301.15324   -63462.488   -62924.399    6037.5085    6028.0754    6043.5145    6040.9355       65.172       65.172       65.172    2.8346146    129.64381 
   58500    300.07995   -63458.162    -62921.99    6069.6218    6064.3803    6008.1865    6136.2985       65.172       65.172       65.172    2.9449561    130.07712 
   59000    303.18324   -63452.237    -62910.52    5989.6342    5974.4973    6016.7433    5977.6619       65.172       65.172       65.172    2.7516838    129.95902 
   59500    299.19671   -63451.353   -62916.759    6117.9019    6122.3511    6111.9439    6119.4105       65.172       65.172       65.172    2.9060529    131.09522 
   60000    301.97703   -63461.244   -62921.682    6055.3047    6022.6099    6084.4848    6058.8195       65.172       65.172       65.172    3.1413216    129.71141 
   60500    297.13114   -63457.121   -62926.218    6026.5538    6051.1015     5999.741     6028.819       65.172       65.172       65.172    2.4177045    130.14584 
   61000    296.91078   -63462.561   -62932.052    5987.7511    6020.7103    5973.2556    5969.2874       65.172       65.172       65.172    3.0501381    129.41614 
   61500    302.26577   -63455.307   -62915.229    6099.9424    6130.4502    6091.3083    6078.0686       65.172       65.172       65.172    2.8331319    130.88734 
   62000    298.83339   -63455.505   -62921.561    6069.9977    6110.6554     6039.092    6060.2457       65.172       65.172       65.172    2.9120155    130.63941 
   62500    302.25582   -63469.684   -62929.625    6052.0374    6099.7031    6010.4716    6045.9376       65.172       65.172       65.172    2.5268416    129.30168 
   63000    298.26942    -63461.17   -62928.233    6027.1207    6099.8637    6029.3596    5952.1388       65.172       65.172       65.172    2.6749865    129.76423 
   63500    298.03012    -63456.59    -62924.08    5986.1604    5984.6892    5997.2303    5976.5617       65.172       65.172       65.172    2.8340999    129.47493 
   64000    303.99082   -63455.636   -62912.477    6082.5718    6076.1383    6100.4666    6071.1106       65.172       65.172       65.172    2.6158857    130.30606 
   64500    302.74875    -63453.51    -62912.57    6174.9243    6196.1856    6137.4496    6191.1378       65.172       65.172       65.172    2.8662486    131.10866 
   65000    302.30673   -63463.584   -62923.434    6059.1577    6036.6744    6048.1521    6092.6465       65.172       65.172       65.172    2.7645782    129.62153 
   65500    295.68278   -63456.303   -62927.988    6039.6645    6018.3222    6062.4433     6038.228       65.172       65.172       65.172    2.9478021    130.75722 
   66000    299.57448   -63462.174   -62926.905    6055.4088    6063.4632    6027.5465    6075.2166       65.172       65.172       65.172    2.6204429    129.84336 
   66500    302.49248   -63460.747   -62920.264    6038.3167    6005.3707    6103.3486    6006.2308       65.172       65.172       65.172    2.8368255    129.47829 
   67000    300.89235   -63453.701   -62916.078    6119.5913      6074.32    6109.3142    6175.1397       65.172       65.172       65.172    2.9435178    131.05073 
   67500    298.28877   -63460.871     -62927.9    6025.4702    6007.2499    6055.4472    6013.7133       65.172       65.172       65.172    3.0679463    129.57793 
   68000    295.72916   -63451.112   -62922.714    6085.7967    6116.3278     6048.107    6092.9554       65.172       65.172       65.172    2.6156796    131.15854 
   68500    302.39782   -63455.437   -62915.124    6126.7222    6169.6185    6062.7626    6147.7856       65.172       65.172       65.172    2.7665058    130.52982 
   69000    298.01585   -63454.708   -62922.224    6036.4553    6023.1112    6041.9595    6044.2953       65.172       65.172       65.172    2.7788795    130.19305 
   69500    300.48026   -63462.858   -62925.971    6034.6915    6026.9624    6033.7571     6043.355       65.172       65.172       65.172    2.9159656    129.35784 
   70000    300.75398   -63459.486    -62922.11    6019.0862    6049.6648    5988.8932    6018.7004       65.172       65.172       65.172    2.5848721     129.7904 
   70500    302.84003   -63453.579   -62912.476    6076.7754    6128.2123    6044.0144    6058.0996       65.172       65.172       65.172      2.87413    130.29165 
   71000    302.70189   -63462.066    -62921.21    6079.0425    6117.5691     6021.497    6098.0614       65.172       65.172       65.172    2.9634223    130.00755 
   71500    300.32555   -63461.848   -62925.238    6053.1419    6100.5808      6054.35     6004.495       65.172       65.172       65.172    2.9042748    130.27385 
   72000    301.62949   -63460.013   -62921.073    6126.5742    6132.1983    6066.9719    6180.5525       65.172       65.172       65.172    2.6735757    130.16114 
   72500    298.95109   -63453.235    -62919.08    6081.5186    6063.7526    6113.2995    6067.5037       65.172       65.172       65.172    2.8233454    130.86355 
   73000    300.26758   -63452.245   -62915.738    6099.8402    6109.3265    6078.2088    6111.9852       65.172       65.172       65.172    2.9532693     130.8674 
   73500    301.12348   -63459.054   -62921.018    6119.5458    6148.0203    6082.8064    6127.8109       65.172       65.172       65.172    2.6881681    130.26244 
   74000    300.04219   -63463.545    -62927.44    6023.7534    5995.9873    6005.7328    6069.5402       65.172       65.172       65.172     2.684552    129.40851 
   74500    297.39058    -63464.58   -62933.213    6030.3481    6017.4023    6054.2914    6019.3507       65.172       65.172       65.172    2.9778488    129.55529 
   75000    304.60978   -63462.795   -62918.529    6079.3985     6073.672    6080.6464    6083.8772       65.172       65.172       65.172     2.814381     129.8827 
   75500    302.10899    -63454.53   -62914.733    6105.8169    6126.6768    6094.8038    6095.9701       65.172       65.172       65.172    2.6788302    130.29657 
   76000    301.08608   -63457.536   -62919.567    6077.7275    6047.9199    6070.9743    6114.2883       65.172       65.172       65.172    2.7121226    130.33567 
   76500    299.43133   -63459.415   -62924.402    6114.3886    6149.6265    6111.9412     6081.598       65.172       65.172       65.172    2.7600971    130.60547 
   77000      302.138   -63457.381   -62917.532    6118.8705    6080.7446    6142.9117    6132.9552       65.172       65.172       65.172    2.6366723    130.20767 
   77500    303.63281   -63458.782   -62916.262     6186.725    6171.8575     6222.157    6166.1604       65.172       65.172       65.172    2.5636844    131.01462 
   78000    301.07114   -63451.125   -62913.182    6122.3642    6094.9489    6117.1507    6154.9928       65.172       65.172       65.172    2.8440371     130.8485 
   78500    299.02253    -63456.17   -62921.888    6081.3553    6074.2128    6049.6507    6120.2024       65.172       65.172       65.172    2.5634865    130.20662 
   79000    296.34155   -63457.072    -62927.58     6126.969    6111.2932    6120.9067     6148.707       65.172       65.172       65.172    2.6843773    130.63217 
   79500    300.10342   -63460.334   -62924.121    6091.6423     6104.523    6177.5441    5992.8597       65.172       65.172       65.172    2.7773605    130.45631 
   80000    302.85491   -63456.089   -62914.959     6155.596    6159.4594    6137.7339    6169.5947       65.172       65.172       65.172    2.7513999    131.00807 
   80500    303.74063   -63459.178   -62916.465    6092.6625    6065.4506    6074.5715    6137.9653       65.172       65.172       65.172    2.9364849    130.16168 
   81000    301.71957   -63459.324   -62920.222    6088.0676    6078.7831    6125.9045     6059.515       65.172       65.172       65.172    2.6677543    130.02954 
   81500    300.70787   -63461.121   -62923.827    6045.7869     6069.005    6015.9003    6052.4555       65.172       65.172       65.172    2.5454588    129.99039 
   82000      297.083    -63460.46   -62929.643    6068.5932    6051.0162    6055.4148    6099.3485       65.172       65.172       65.172    2.7984423    129.96193 
   82500    300.01162   -63463.853   -62927.803    6092.0539    6141.1302    6059.2744     6075.757       65.172       65.172       65.172    2.7735657    129.77035 
   83000    300.23979   -63455.828   -62919.371    6063.9674    6067.1683    6074.8673    6049.8665       65.172       65.172       65.172    2.7154227    130.35264 
   83500    299.69943   -63452.032    -62916.54    6083.1345    6029.8051    6141.4119    6078.1866       65.172       65.172       65.172    2.7249224    130.49238 
   84000     299.3125   -63457.792   -62922.992    6065.1863    6036.3238    6078.7553    6080.4798       65.172       65.172       65.172    2.6860158    130.20095 
   84500    300.39756   -63458.188   -62921.449    6061.6173    6108.0589    6029.2231    6047.5699       65.172       65.172       65.172    2.7558861    129.96219 
   85000    301.17776    -63454.95   -62916.817    6117.7023    6143.7599    6054.4798    6154.8671       65.172       65.172       65.172    3.0269444    130.39047 
   85500    301.47395   -63460.271   -62921.608    6085.9044    6133.3337    6086.3945     6037.985       65.172       65.172       65.172    2.6013352    130.19678 
   86000    297.80975   -63456.949   -62924.834    6035.4889    6071.9777    6052.4284    5982.0607       65.172       65.172       65.172    2.6518954     130.0906 
   86500    298.32468   -63453.201   -62920.166    6051.2637    6049.6171    6107.2925    5996.8815       65.172       65.172       65.172    2.5383205    130.43602 
   87000    300.45346   -63454.074   -62917.235    6090.8197    6142.8966    6057.1105     6072.452       65.172       65.172       65.172    3.0713609    130.37041 
   87500    296.29141   -63461.032    -62931.63    5952.5673    5917.5864    5923.7589    6016.3568       65.172       65.172       65.172    2.9674388    129.67214 
   88000    298.21759   -63458.521   -62925.677    6057.5348    6095.8963    6034.2996    6042.4083       65.172       65.172       65.172    2.7240617     130.2819 
   88500    302.21672   -63462.453   -62922.463    6028.1579    6001.6417    5975.1811    6107.6507       65.172       65.172       65.172    2.6955786    129.50552 
   89000     297.9406   -63450.184   -62917.835    6056.0487    6086.4543     6013.955    6067.7369       65.172       65.172       65.172     2.694535     130.7438 
   89500    302.02378   -63453.914   -62914.269    6083.0015    6117.1417    6091.8522    6040.0106       65.172       65.172       65.172    2.7182075    130.74253 
   90000     301.4298   -63454.454   -62915.871    6080.2279    6101.9572    6118.1675     6020.559       65.172       65.172       65.172    2.7498868    130.38206 
   90500    295.25276   -63450.183   -62922.637      6068.84    6059.5872    6095.2157     6051.717       65.172       65.172       65.172    2.8973361    130.82947 
   91000     303.9183    -63458.62    -62915.59    6128.5884     6171.043    6077.2248    6137.4974       65.172       65.172       65.172    2.7701788    129.99496 
   91500    300.77922   -63456.672   -62919.251    6064.1167    6056.1606    6058.3351    6077.8545       65.172       65.172       65.172    2.6983941    129.98303 
   92000    301.55538   -63462.685   -62923.877    6098.7197    6139.4294    6154.9102    6001.8196       65.172       65.172       65.172    2.7518182    129.85578 
   92500    299.87549   -63456.736   -62920.929    6030.8384    6039.0851    6071.2357    5982.1944       65.172       65.172       65.172    2.6858737     129.7638 
   93000    300.44839   -63451.837   -62915.007    6083.8478      6010.19    6151.8023    6089.5512       65.172       65.172       65.172    2.7705101    130.65686 
   93500    304.37266   -63453.965   -62910.123    6133.2465    6100.4022    6178.1415    6121.1957       65.172       65.172       65.172    2.6892693    130.76974 
   94000    303.20571   -63457.067    -62915.31     6024.505    6019.1723    6032.3315    6022.0112       65.172       65.172       65.172    2.6708874     129.8559 
   94500    299.54792   -63458.655   -62923.434    6010.5826    6003.2408     5983.984     6044.523       65.172       65.172       65.172    2.7234263    129.87185 
   95000    300.40976   -63462.411    -62925.65    5981.7374    5977.6675    5978.0609    5989.4837       65.172       65.172       65.172     2.889881    129.07497 
   95500    301.30136    -63457.83   -62919.476    6046.4661    6088.5853    5986.9547    6063.8582       65.172       65.172       65.172    2.7170706    129.82307 
   96000    302.57947   -63454.289   -62913.651    6112.6584    6107.2423    6146.1368    6084.5961       65.172       65.172       65.172    2.9109114    130.99226 
   96500    298.30777    -63458.44   -62925.435    6062.3639    6091.1303    6062.2795    6033.6819       65.172       65.172       65.172    2.7774009    130.17238 
   97000    299.97617    -63463.23   -62927.244    5955.9618     5950.687    6000.4046    5916.7938       65.172       65.172       65.172    3.0122478    128.40909 
   97500    296.17684   -63453.569   -62924.371    5980.5518    5947.4949     6000.729    5993.4315       65.172       65.172       65.172    2.5699547    129.85853 
   98000    299.69634   -63451.473   -62915.987     6045.481    6039.9744    6029.2175    6067.2511       65.172       65.172       65.172    2.6982826    130.50083 
   98500     305.2187   -63462.662   -62917.308    6018.4163    6013.0337      6044.08    5998.1353       65.172       65.172       65.172    2.6388756    129.37226 
   99000    300.50208   -63455.848   -62918.922    6074.8161    6069.7781    6044.3643    6110.3057       65.172       65.172       65.172    2.5368418    130.04619 
   99500    299.38489   -63459.903   -62924.973    5991.9389    5988.3003    6006.9469    5980.5694       65.172       65.172       65.172    2.8103976    129.54474 
  100000    298.46844   -63465.478   -62932.185    5957.1161    5952.8646    5969.6719    5948.8118       65.172       65.172       65.172    2.5951436    128.73949 
Loop time of 138.417 on 8 procs for 100000 steps with 13824 atoms

Performance: 62.420 ns/day, 0.384 hours/ns, 722.453 timesteps/s
99.1% CPU use with 8 MPI tasks x 1 OpenMP threads

MPI task timing breakdown:
Section |  min time  |  avg time  |  max time  |%varavg| %total
---------------------------------------------------------------
Pair    | 132.01     | 132.31     | 132.61     |   1.5 | 95.59
Neigh   | 0          | 0          | 0          |   0.0 |  0.00
Comm    | 3.8085     | 4.1094     | 4.3982     |   8.4 |  2.97
Output  | 0.2321     | 0.23219    | 0.23269    |   0.0 |  0.17
Modify  | 1.3207     | 1.3329     | 1.3457     |   0.7 |  0.96
Other   |            | 0.4334     |            |       |  0.31

Nlocal:        1728.00 ave        1728 max        1728 min
Histogram: 8 0 0 0 0 0 0 0 0 0
Nghost:        2007.00 ave        2007 max        2007 min
Histogram: 8 0 0 0 0 0 0 0 0 0
Neighs:         0.00000 ave           0 max           0 min
Histogram: 8 0 0 0 0 0 0 0 0 0
FullNghs:      48384.0 ave       48384 max       48384 min
Histogram: 8 0 0 0 0 0 0 0 0 0

Total # of neighbors = 387072
Ave neighs/atom = 28.000000
Neighbor list builds = 0
Dangerous builds = 0
unfix           NVT

### NVE equlibration (de-correlate from thermostats)
fix             NVE all nve
run             100000
Per MPI rank memory allocation (min/avg/max) = 4.607 | 4.607 | 4.607 Mbytes
Step Temp PotEng TotEng Press Pxx Pyy Pzz Lx Ly Lz Fmax Fnorm 
  100000    298.46844   -63465.478   -62932.185    5957.1161    5952.8646    5969.6719    5948.8118       65.172       65.172       65.172    2.5951436    128.73949 
  100500    297.13456   -63463.093   -62932.184    5986.0273    5961.6129    5996.6405    5999.8284       65.172       65.172       65.172    2.6206388    129.13596 
  101000    294.11663   -63457.693   -62932.176    5975.7663    5949.0537    5996.6608    5981.5843       65.172       65.172       65.172    2.7442696    129.60488 
  101500    299.92709   -63468.087   -62932.189    5948.7653    5923.9078    5928.2481    5994.1401       65.172       65.172       65.172    3.1379461    128.67244 
  102000     298.5996   -63465.714   -62932.187    5963.6288    5957.3843    5948.4377    5985.0644       65.172       65.172       65.172    2.5679961    128.85747 
  102500    298.58817   -63465.694   -62932.188    5969.1982    5974.5817    5973.1714    5959.8415       65.172       65.172       65.172    2.5980753    128.79342 
  103000    297.05216   -63462.945   -62932.183     5963.539    5952.6531    5982.8203    5955.1437       65.172       65.172       65.172    2.4881905    129.34035 
  103500     296.3472   -63461.681   -62932.178    6033.8047    6035.9734    6067.1123    5998.3283       65.172       65.172       65.172    2.8259151    129.81797 
  104000    297.49248   -63463.729    -62932.18    6012.9381    6016.0386    5993.0973    6029.6784       65.172       65.172       65.172    2.6457354     129.5376 
  104500    297.36262   -63463.496    -62932.18    5991.3811    6010.9868     6008.223    5954.9335       65.172       65.172       65.172    2.7429871    129.38206 
  105000    296.55056   -63462.047   -62932.182    5936.7002    5987.5893    5943.4844     5879.027       65.172       65.172       65.172    2.5540624    129.28544 
  105500    298.04972   -63464.728   -62932.184    5988.5983    5992.0461    6036.4474    5937.3015       65.172       65.172       65.172    2.9392584    129.24406 
  106000    302.05188   -63471.887   -62932.192    5966.2855    6007.5163    5941.0202    5950.3199       65.172       65.172       65.172    2.6636992    128.25736 
  106500    296.47994   -63461.918   -62932.178    6018.0169    6021.0325    6105.3978    5927.6203       65.172       65.172       65.172    2.9881473    129.46155 
  107000    295.76444   -63460.641    -62932.18    5921.4901    5896.2167    5958.8006    5909.4531       65.172       65.172       65.172    2.8071633    129.35601 
  107500    295.96724   -63461.005   -62932.182    5952.2901    5960.2597    5938.0018    5958.6088       65.172       65.172       65.172    2.6271891    129.02735 
  108000    297.53398   -63463.804   -62932.181    5946.2001    5957.1975    6022.6046    5858.7983       65.172       65.172       65.172    2.8168779    129.19259 
  108500    298.34616   -63465.258   -62932.185    5950.5194     5907.058    5979.6609    5964.8392       65.172       65.172       65.172     2.492616    128.70772 
  109000    298.94569   -63466.328   -62932.183    5956.6009    5901.3083    6007.9139    5960.5805       65.172       65.172       65.172    2.8352476    128.96348 
  109500    296.75814   -63462.418   -62932.181    5962.4486    5952.0613    5974.3943    5960.8902       65.172       65.172       65.172    2.5877277    129.11683 
  110000    297.78874   -63464.259   -62932.181    5981.6008    5975.9019    6001.3698    5967.5307       65.172       65.172       65.172    2.8221882    129.10649 
  110500    296.82391    -63462.54   -62932.186    5913.0975    5903.1611    5906.7969    5929.3346       65.172       65.172       65.172    2.9371156      128.931 
  111000    293.52966   -63456.642   -62932.174    5981.2112     5968.939    6015.2755     5959.419       65.172       65.172       65.172    2.6719893    129.95027 
  111500    296.32338   -63461.639    -62932.18    5990.3979      6015.95    6059.1302    5896.1134       65.172       65.172       65.172    2.7429184    129.34386 
  112000    297.41044   -63463.583   -62932.181    5992.8624    5980.1705    6033.7743    5964.6424       65.172       65.172       65.172    2.8916319    129.44274 
  112500     293.3605    -63456.34   -62932.175     5996.282    5997.1369    5991.5315    6000.1774       65.172       65.172       65.172    3.2942543    129.98307 
  113000    296.15492    -63461.34   -62932.181    5984.5575    6007.8576    5954.1124    5991.7024       65.172       65.172       65.172    2.5824661    129.42427 
  113500    297.35804   -63463.495   -62932.186    5965.4324    5946.6286    5979.5741    5970.0944       65.172       65.172       65.172    2.8727072      128.844 
  114000      296.983   -63462.821   -62932.183    5988.5412    5987.0937    5923.9023    6054.6275       65.172       65.172       65.172     2.832712    129.28461 
  114500    296.46985   -63461.903   -62932.182    5961.6136     5945.967    5946.1625    5992.7115       65.172       65.172       65.172    2.8597712    129.36142 
  115000    298.35075   -63465.268   -62932.186    5977.5257    5979.0784    5957.2205    5996.2781       65.172       65.172       65.172     2.609729    128.97597 
  115500    295.44054   -63460.059   -62932.176    5976.0382    5978.1969    5939.9024    6010.0152       65.172       65.172       65.172     2.903198    129.71063 
  116000     298.9985   -63466.424   -62932.185    5995.6663    6018.2476    5962.3643    6006.3869       65.172       65.172       65.172    2.8407075    128.95036 
  116500    297.74045   -63464.175   -62932.183    5943.5732    5971.4126    5930.8841    5928.4229       65.172       65.172       65.172    2.7507559    129.26533 
  117000     298.3977    -63465.35   -62932.184    5969.8327    6006.3594     5968.101    5935.0376       65.172       65.172       65.172    2.5976902    129.12159 
  117500    295.77757   -63460.662   -62932.177    5943.4337    5880.7084    5970.7035    5978.8892       65.172       65.172       65.172    2.8332627    129.62034 
  118000    298.24223    -63465.08   -62932.192    5906.1336    5862.7449    5878.0287    5977.6271       65.172       65.172       65.172    2.7219852    128.50283 
  118500    296.70684   -63462.321   -62932.176    5998.3758    6039.3593    5966.9984    5988.7697       65.172       65.172       65.172    2.8210754    129.77934 
  119000    298.72381   -63465.933   -62932.184    5944.7251    5925.4172    5966.2485    5942.5096       65.172       65.172       65.172    2.5550307     128.9297 
  119500     297.6526   -63464.019   -62932.184     5936.981    5860.3551    5988.3991    5962.1887       65.172       65.172       65.172    2.9066296    128.84175 
  120000    298.13434    -63464.88   -62932.184     5957.869    5971.7491    5946.3316    5955.5264       65.172       65.172       65.172    2.7029117     129.2348 
  120500     296.0642   -63461.173   -62932.177    5995.6385    6029.2409     5989.469    5968.2058       65.172       65.172       65.172    2.7910107    129.98082 
  121000    297.86966   -63464.413    -62932.19    5902.3434    5869.8958    5942.7239    5894.4103       65.172       65.172       65.172    2.3875336    128.61135 
  121500    295.17523   -63459.586   -62932.177    5985.2806    5950.4619    6017.5964    5987.7833       65.172       65.172       65.172    2.5969234    129.52166 
  122000    296.83233   -63462.552   -62932.183    5970.3591     5940.308    6031.0283    5939.7411       65.172       65.172       65.172    2.5545557    129.05618 
  122500    298.51326   -63465.563   -62932.191    5935.0996    5895.7451    5977.1306    5932.4231       65.172       65.172       65.172    2.6815867     128.4204 
  123000    296.78271   -63462.456   -62932.176    6005.4526     6040.227     5982.638    5993.4927       65.172       65.172       65.172    2.8834929    129.78165 
  123500    296.59672   -63462.126   -62932.178    6000.3077    5991.4922    5992.0766    6017.3542       65.172       65.172       65.172    2.5519983    129.75281 
  124000     297.4647   -63463.685   -62932.186    6009.7176    6036.4905     6024.611    5968.0514       65.172       65.172       65.172    2.6013064    129.06708 
  124500    297.14563   -63463.114   -62932.185    5957.7528    6022.4649    5883.9418    5966.8517       65.172       65.172       65.172    2.5330995    129.26885 
  125000    296.17985   -63461.385   -62932.182    5976.1316    5949.3414    5991.6236    5987.4299       65.172       65.172       65.172    3.7659992    129.48063 
  125500    300.44336   -63469.015   -62932.194    5898.4839    5906.1734    5878.8139    5910.4643       65.172       65.172       65.172    2.7543493    128.11104 
  126000    294.80179   -63458.918   -62932.177    5971.2832    5981.7963     5977.182    5954.8714       65.172       65.172       65.172    2.8481153    129.82892 
  126500    293.59853   -63456.768   -62932.177    5978.1324    6013.7839    5935.4242    5985.1892       65.172       65.172       65.172    2.9125765    129.95226 
  127000    296.36881    -63461.72    -62932.18    5989.6566    5983.1751    6010.7649    5975.0297       65.172       65.172       65.172    2.8793882    129.60825 
  127500    297.34295   -63463.468   -62932.187    5969.6919      5924.65    5960.9674    6023.4584       65.172       65.172       65.172    2.7443096    128.99692 
  128000    295.33247    -63459.87   -62932.181    5984.8647    5985.5414    5981.9397    5987.1131       65.172       65.172       65.172     2.654709    129.63223 
  128500    297.20188   -63463.216   -62932.186    5995.0626    5976.5725    5978.9907    6029.6246       65.172       65.172       65.172    2.7762254    129.22387 
  129000    295.95168   -63460.976    -62932.18    5971.7573    5967.9913    5992.7519    5954.5286       65.172       65.172       65.172    2.7425494    129.55557 
  129500    296.50629   -63461.967   -62932.181    5994.2444    5986.5968    5954.6881    6041.4484       65.172       65.172       65.172    2.6835992    129.57808 
  130000    295.89303   -63460.872   -62932.182    5986.9973    6004.1143    6041.2594    5915.6183       65.172       65.172       65.172    2.6590355    129.60283 
  130500    297.05007   -63462.939   -62932.181    6018.3119    6034.2568    6022.9047    5997.7743       65.172       65.172       65.172    2.8300165    130.00127 
  131000    296.85894   -63462.601   -62932.184    5978.4413    5980.0381    6027.5684    5927.7172       65.172       65.172       65.172    2.9347982    129.37428 
  131500    296.91516   -63462.702   -62932.185    5977.2003    6006.8362    5977.4992    5947.2656       65.172       65.172       65.172    2.7452042     129.1006 
  132000    296.91518   -63462.699   -62932.182    5954.8799    5984.0606    5957.8382    5922.7408       65.172       65.172       65.172    2.5546369    129.29676 
  132500    297.21616   -63463.244    -62932.19     5915.382    5898.3698    5956.4115    5891.3648       65.172       65.172       65.172    2.7064782    128.70796 
  133000    296.66661    -63462.25   -62932.177    6008.1852    6027.2845    5963.4911    6033.7799       65.172       65.172       65.172    2.9067411    129.74398 
  133500    298.05147   -63464.732   -62932.184    6002.7608    6008.9963     6018.291    5980.9952       65.172       65.172       65.172    2.7513505    129.17397 
  134000      295.243    -63459.71   -62932.181    5955.2901    5946.7256    5943.4484    5975.6963       65.172       65.172       65.172    2.5643733      129.446 
  134500       296.52   -63461.991    -62932.18    5977.1722    5974.8383    5950.7362    6005.9421       65.172       65.172       65.172    2.6618255    129.59776 
  135000    298.61048   -63465.731   -62932.185    5967.8351    5953.3299    5980.3616    5969.8139       65.172       65.172       65.172    2.8084207    129.12327 
  135500    295.37003   -63459.938   -62932.181    5958.5068    5940.1043    5997.9379    5937.4783       65.172       65.172       65.172    2.7061577    129.59884 
  136000     297.2053   -63463.218   -62932.182     5964.605    5961.0123     5955.583    5977.2197       65.172       65.172       65.172    3.0461029    129.45934 
  136500    298.32638   -63465.225   -62932.186    5990.7365    5980.5898    5979.0343    6012.5853       65.172       65.172       65.172    2.7482737    129.08152 
  137000    295.50405   -63460.178   -62932.183    5947.7769    5928.1566    5932.8447    5982.3293       65.172       65.172       65.172    2.8690894    129.55305 
  137500    296.56601   -63462.071   -62932.178    5992.8814    5994.2811    5999.9735    5984.3895       65.172       65.172       65.172    2.5801617    129.61805 
  138000    297.07603   -63462.985   -62932.181    5990.0867    6046.0813    5978.0168    5946.1618       65.172       65.172       65.172     3.038346    129.48989 
  138500    298.43743   -63465.428   -62932.191    5951.8643    6021.7553    5911.4096    5922.4279       65.172       65.172       65.172     2.662229    128.82303 
  139000    296.32982   -63461.654   -62932.183    5941.0205    5979.3365    5929.7752    5913.9499       65.172       65.172       65.172    2.8016607    129.22316 
  139500    299.63593   -63467.566   -62932.188    6011.1531    6029.2226    5945.5387     6058.698       65.172       65.172       65.172    2.8909625    128.99303 
  140000    299.15772   -63466.711   -62932.187    5982.2537    5950.9355    6023.5417    5972.2838       65.172       65.172       65.172    2.4579532     128.9862 
  140500    294.41145   -63458.222   -62932.178    6004.9097    5978.2237    6059.7499    5976.7556       65.172       65.172       65.172    2.6726082    129.81263 
  141000    298.23338   -63465.057   -62932.185    5976.4832    6010.8257    5975.3867    5943.2371       65.172       65.172       65.172    2.8250224    129.27699 
  141500    295.57005   -63460.296   -62932.183    5970.5578    5976.0332     5985.678    5949.9621       65.172       65.172       65.172    2.8691168    129.59006 
  142000    299.14623   -63466.692   -62932.188    5981.2985    6028.1194    5913.2233    6002.5527       65.172       65.172       65.172    2.7925943    129.01416 
  142500    300.02425   -63468.266   -62932.194    5971.5405    6006.4619    5958.9167    5949.2428       65.172       65.172       65.172    2.5947103    128.59599 
  143000     296.6128   -63462.162   -62932.186     5939.705    5934.5168    5946.1129    5938.4852       65.172       65.172       65.172    2.6926487    129.33057 
  143500    297.30049    -63463.39   -62932.184    6004.2123    5999.7262    6023.4395    5989.4711       65.172       65.172       65.172    2.7030106    129.22515 
  144000    297.37476    -63463.52   -62932.182    5996.7426    5953.2501    6010.0092    6026.9685       65.172       65.172       65.172    2.6656647    129.29338 
  144500    296.05467   -63461.155   -62932.176    6022.7632    6004.0276    6048.9201     6015.342       65.172       65.172       65.172    3.0499387    129.80585 
  145000    295.34925   -63459.896   -62932.177    5991.6893    5994.1247    5989.9646    5990.9785       65.172       65.172       65.172    2.7166701    129.68724 
  145500    294.97865   -63459.234   -62932.177    5939.4542    5895.4879    5960.0455    5962.8294       65.172       65.172       65.172    2.7672124    129.58383 
  146000    295.86934   -63460.828    -62932.18    5958.7065    5977.2652    5954.0378    5944.8167       65.172       65.172       65.172    2.9019898    129.16356 
  146500    297.93952   -63464.532   -62932.185    5961.1138    5962.5449    5958.7524    5962.0442       65.172       65.172       65.172    2.6435023    129.21993 
  147000    298.38842   -63465.337   -62932.187    5942.2935    5905.1434    5917.4552    6004.2821       65.172       65.172       65.172    2.7493318    128.68466 
  147500     296.2024   -63461.426   -62932.183    5944.3523    5946.2672    5969.8778    5916.9119       65.172       65.172       65.172    2.8814046    129.23184 
  148000    298.24326   -63465.081   -62932.191    5948.2222    5957.5807    5964.2749     5922.811       65.172       65.172       65.172    3.1073794    128.62493 
  148500    296.70068   -63462.314    -62932.18    5991.9723    5957.6886    6026.7973    5991.4309       65.172       65.172       65.172    2.7983719    129.60241 
  149000    297.46779   -63463.689   -62932.184     5949.737    5972.2673    5933.5143    5943.4295       65.172       65.172       65.172    3.3502455    129.06421 
  149500     296.2752   -63461.551   -62932.177    6019.7899    5948.5799    6036.0076    6074.7821       65.172       65.172       65.172    2.7533911    129.89166 
  150000    297.96742   -63464.586   -62932.189    5945.0823    5931.1944    5933.0014     5971.051       65.172       65.172       65.172    3.2544552    128.91003 
  150500    295.95518   -63460.985   -62932.183    5925.1656    5891.0068    5904.1165    5980.3737       65.172       65.172       65.172    2.6676091    129.42769 
  151000    295.54233    -63460.25   -62932.186     5945.908    5988.1702    5939.1482    5910.4056       65.172       65.172       65.172      2.48284    129.24675 
  151500    297.35926   -63463.496   -62932.185    6000.1374    6033.5711    6020.7998    5946.0415       65.172       65.172       65.172    2.7118175    129.31361 
  152000    294.67236   -63458.685   -62932.175    6008.3876    6007.9025    6040.6566    5976.6038       65.172       65.172       65.172    3.1543771    130.17893 
  152500     297.0755   -63462.985   -62932.181    5958.7468    6019.5985    5918.7091    5937.9329       65.172       65.172       65.172    2.7153754    129.68199 
  153000    295.11206   -63459.477   -62932.182    5960.0094    5947.9725    5984.9964    5947.0593       65.172       65.172       65.172    3.1495658    129.28188 
  153500    293.87816   -63457.266   -62932.176    5999.6041    6047.0467    5992.8895    5958.8762       65.172       65.172       65.172    2.7082793    130.08703 
  154000    296.86492   -63462.609   -62932.182    6025.5659    6027.8408    6029.1299    6019.7269       65.172       65.172       65.172    2.8796453    129.91767 
  154500    296.90468   -63462.681   -62932.183    6011.1491     5876.822    6073.5115    6083.1138       65.172       65.172       65.172    3.0208673    129.69018 
  155000    295.82302   -63460.745   -62932.179    5970.0511     5990.121    5947.4262    5972.6062       65.172       65.172       65.172    2.7785263    129.76915 
  155500    296.40945   -63461.795   -62932.182    5980.5067    5915.8002    5964.0453    6061.6745       65.172       65.172       65.172     3.079196    129.38518 
  156000    297.61837   -63463.959   -62932.186    5946.8491    5981.1171    5922.4361    5936.9939       65.172       65.172       65.172    2.8644242    128.90474 
  156500    297.21297   -63463.229    -62932.18    5964.1336    5965.7066    5970.0627    5956.6315       65.172       65.172       65.172    2.8752742    129.29563 
  157000    298.67922   -63465.856   -62932.187    5955.9256     5958.157    5995.3886    5914.2312       65.172       65.172       65.172    2.8875918    128.73997 
  157500    296.81064   -63462.514   -62932.184    5966.2323    5942.1471    5970.2009    5986.3489       65.172       65.172       65.172    2.7462532    128.98502 
  158000    293.62981   -63456.814   -62932.167    6022.9879    5978.2793     6065.281    6025.4033       65.172       65.172       65.172    3.0468485    130.58846 
  158500    297.59928   -63463.924   -62932.185    5987.8473    5979.5854    6009.8406    5974.1161       65.172       65.172       65.172    3.0130967    128.91026 
  159000    296.08887   -63461.216   -62932.176    6002.2905    5996.7374    5976.3582     6033.776       65.172       65.172       65.172    2.7428413    129.82765 
  159500    297.62488   -63463.966   -62932.181    5993.0184    5967.2273    5987.0932    6024.7348       65.172       65.172       65.172    2.6741008    129.44751 
  160000    295.03294   -63459.333   -62932.179    5956.7548    5943.7154     5951.859    5974.6901       65.172       65.172       65.172    2.8553553    129.32034 
  160500    296.66236   -63462.248   -62932.183    5969.4921    6020.0375    5965.5571    5922.8819       65.172       65.172       65.172    2.6137427    129.32442 
  161000     295.0489   -63459.361   -62932.179    5980.8914    5967.8591    6057.0314    5917.7836       65.172       65.172       65.172    2.4400425    129.42411 
  161500    299.27923   -63466.929   -62932.188    5965.4991    6013.7696    5942.5713    5940.1566       65.172       65.172       65.172    2.8012864    128.66673 
  162000     299.5804   -63467.467   -62932.188     5952.739    5994.7306     5970.875    5892.6114       65.172       65.172       65.172    2.7770223    128.59943 
  162500    295.04825   -63459.357   -62932.176    5993.8955    5957.9267    6030.1598    5993.6001       65.172       65.172       65.172    2.6816253    129.85262 
  163000    297.54679   -63463.826   -62932.181    5995.8451    5955.4706    5968.3826    6063.6821       65.172       65.172       65.172    2.6159629    129.22088 
  163500    294.59265    -63458.54   -62932.173    5997.0842    5973.3006    6039.8466    5978.1053       65.172       65.172       65.172    2.7832287    129.75322 
  164000    297.72528   -63464.148   -62932.183    5985.9317    5960.7035    6019.8114    5977.2802       65.172       65.172       65.172    3.2191037    128.91697 
  164500    297.28823   -63463.366   -62932.182    5945.7681    5957.9294    5938.8035    5940.5716       65.172       65.172       65.172     2.909853    129.01888 
  165000    296.54693   -63462.037   -62932.178    5957.7606    5917.0261    5974.9545    5981.3013       65.172       65.172       65.172    3.0466244    129.58218 
  165500    295.49445    -63460.15   -62932.172    6002.1671    5992.5765    5952.1345    6061.7904       65.172       65.172       65.172    3.1812078    130.02249 
  166000    297.83864   -63464.349   -62932.182    5954.9583    5967.9221    5952.1883    5944.7643       65.172       65.172       65.172    2.6371029    128.90151 
  166500    297.14735   -63463.114   -62932.183    5979.4915    5996.4482    5890.2239    6051.8024       65.172       65.172       65.172    2.7460858    129.13075 
  167000    296.09798    -63461.24   -62932.183    5967.9403    5953.7395    6051.7346    5898.3466       65.172       65.172       65.172     2.902097    129.18418 
  167500    297.94351   -63464.536   -62932.181    6011.7163     6049.825    5941.3281    6043.9957       65.172       65.172       65.172    2.7718654    128.97112 
  168000    293.77699   -63457.083   -62932.173    5960.1281    6024.9043    5950.0742    5905.4058       65.172       65.172       65.172    2.6727205    129.87134 
  168500     298.0069   -63464.653   -62932.185    5922.2943    5907.2568    5963.0261    5896.6001       65.172       65.172       65.172    2.5458298    128.62407 
  169000    298.51463   -63465.563   -62932.188    5973.9758    6027.1636    5956.1469    5938.6169       65.172       65.172       65.172    2.9722252    128.40253 
  169500     297.7314   -63464.155    -62932.18    5964.3117    5951.4028    5929.4968    6012.0355       65.172       65.172       65.172     2.745464    129.40307 
  170000    298.60237   -63465.716   -62932.184    5960.8161    6008.7609    5915.1361    5958.5513       65.172       65.172       65.172    2.6040311    128.92573 
  170500    299.38632   -63467.121   -62932.189    5943.3243    5964.0052    5993.9896    5871.9781       65.172       65.172       65.172    2.8366642    128.58303 
  171000     297.8029   -63464.289   -62932.186    5939.4631    5968.2877    5954.9856     5895.116       65.172       65.172       65.172    2.6003579    128.95962 
  171500    296.97827   -63462.815   -62932.185    5980.5753    6045.7982    5997.1249    5898.8028       65.172       65.172       65.172    3.0141085    129.21935 
  172000    297.93411   -63464.521   -62932.183    6005.9879    5985.3205    6018.2229    6014.4202       65.172       65.172       65.172    2.5482001    129.18506 
  172500    296.67715   -63462.267   -62932.175    6066.1825    6017.0659    6157.3017      6024.18       65.172       65.172       65.172    2.7642644    130.16969 
  173000    296.32649   -63461.651   -62932.186    5972.8582    5982.8355    6022.0412    5913.6979       65.172       65.172       65.172    3.2610881    129.10564 
  173500    296.76937   -63462.439   -62932.182    6008.2018    6032.8195    5974.8091    6016.9768       65.172       65.172       65.172    2.8533786    129.36134 
  174000    298.72201   -63465.933   -62932.187    5965.6061    6021.9771     5921.966    5952.8752       65.172       65.172       65.172    2.9870442    128.65779 
  174500    295.51609   -63460.196   -62932.179     5987.583    6041.1772    6005.7896     5915.782       65.172       65.172       65.172     2.729034    129.56448 
  175000    296.26763   -63461.539   -62932.179    6002.4733    6014.4109    5984.9681     6008.041       65.172       65.172       65.172    2.6380694    129.39675 
  175500    298.34142   -63465.248   -62932.182    5988.7593    5954.4549     5970.296    6041.5269       65.172       65.172       65.172    2.7619911    129.09915 
  176000    298.07722   -63464.777   -62932.184    6023.2663    6051.8936    5992.2036    6025.7018       65.172       65.172       65.172    2.4721575     129.0043 
  176500     299.1208   -63466.641   -62932.183     6002.226    5992.6885    5988.4371    6025.5523       65.172       65.172       65.172    2.5793339     129.0184 
  177000    296.14125   -63461.312   -62932.178     5986.181    6000.3339    6006.3606    5951.8485       65.172       65.172       65.172    2.7844854    129.51219 
  177500    295.15271   -63459.547   -62932.179    5992.2752    5977.0905    5989.4657    6010.2694       65.172       65.172       65.172    2.8073733    129.45947 
  178000    296.85071   -63462.585   -62932.184    5942.3781    5954.4861    5963.2812    5909.3669       65.172       65.172       65.172    2.4718037    128.99437 
  178500    296.41136   -63461.798   -62932.181    5955.0721    5893.8899    5968.3518    6002.9745       65.172       65.172       65.172    2.5861611    129.30084 
  179000    294.23241   -63457.892   -62932.169    6053.7911    6073.7347     6061.639    6025.9996       65.172       65.172       65.172    2.6901596    130.40571 
  179500    299.29187   -63466.948   -62932.185     5975.985    5998.5257    5941.8834    5987.5459       65.172       65.172       65.172    2.8292721    128.85469 
  180000    295.08548   -63459.422   -62932.174    5986.5984    6042.9379    5986.3694    5930.4879       65.172       65.172       65.172    2.9617596     129.8239 
  180500    299.03278   -63466.489   -62932.188    5962.2917    5929.3999      5973.76    5983.7151       65.172       65.172       65.172    2.7099978    128.56167 
  181000    296.42387   -63461.816   -62932.176     6004.171    5979.3792    5989.3873    6043.7464       65.172       65.172       65.172    2.6123174    129.68726 
  181500    298.41525   -63465.381   -62932.184     6016.262    6022.4524     5986.005    6040.3285       65.172       65.172       65.172    2.6737196    128.87352 
  182000    297.40091   -63463.568   -62932.183    5968.0445    5968.5595    6011.6359    5923.9382       65.172       65.172       65.172    2.5697049     129.0183 
  182500    295.56246   -63460.282   -62932.182    5948.7258    5917.5713    5996.1199    5932.4862       65.172       65.172       65.172     3.054015    129.17519 
  183000    299.57561   -63467.459   -62932.189    5957.7165    5894.5063    6016.0412    5962.6022       65.172       65.172       65.172     2.683559    128.63134 
  183500    299.46994   -63467.266   -62932.185    6016.1747    5978.8011    6095.7499    5973.9732       65.172       65.172       65.172     2.487043    129.18566 
  184000    298.15206   -63464.913   -62932.186    5971.7534    5963.3502    5976.2397    5975.6704       65.172       65.172       65.172    2.9359879    128.88267 
  184500    296.72235   -63462.353   -62932.181    5995.9935    5958.8369    6024.2565    6004.8871       65.172       65.172       65.172    3.0510782    129.38698 
  185000    297.60657   -63463.934   -62932.181    6008.4505     5970.858    6057.2459    5997.2474       65.172       65.172       65.172    2.8654296    129.03504 
  185500     296.7463   -63462.389   -62932.174    6030.7335    5962.9891    6045.7788    6083.4326       65.172       65.172       65.172    3.0149476    130.28285 
  186000    299.17473   -63466.742   -62932.188    5980.7206    6038.5877    5912.3553    5991.2189       65.172       65.172       65.172    2.5542747    128.71695 
  186500    298.34249   -63465.249   -62932.182    5975.7305    5913.4253      6039.74    5974.0262       65.172       65.172       65.172    3.0979967    129.46293 
  187000    296.90933   -63462.689   -62932.182    6017.1065     6055.763    5973.6537    6021.9028       65.172       65.172       65.172    2.9573398    129.69799 
  187500    295.68067   -63460.494   -62932.183    5985.6535    6026.3259    5983.7276    5946.9068       65.172       65.172       65.172    2.8609245    129.42034 
  188000    295.53882   -63460.236   -62932.178    6008.4906    6037.6833    6007.3405    5980.4478       65.172       65.172       65.172    2.7228271    129.65445 
  188500    298.17036   -63464.944   -62932.184    6001.5138    6054.3643    5922.7109    6027.4662       65.172       65.172       65.172    2.8495637     129.0959 
  189000    294.92162   -63459.131   -62932.176    5981.6078    5951.3367    5990.0387     6003.448       65.172       65.172       65.172    2.6669536    129.83411 
  189500    296.92842   -63462.722   -62932.181    5956.1983    5954.1934    5987.9734    5926.4282       65.172       65.172       65.172    2.9875144    129.28756 
  190000    299.40014   -63467.145   -62932.188    5966.6829    6001.0947    5928.9217    5970.0324       65.172       65.172       65.172    2.8899364    128.62799 
  190500     299.0285   -63466.482   -62932.189    5953.9821    5953.5303    5951.9622    5956.4538       65.172       65.172       65.172    2.9097787    128.80163 
  191000    294.80175   -63458.916   -62932.175    5976.1177    6033.7871    6024.0998    5870.4664       65.172       65.172       65.172     3.131077     129.6111 
  191500    295.80771   -63460.719   -62932.181    5993.5563     5979.811    5998.5137    6002.3442       65.172       65.172       65.172     3.032764    129.26978 
  192000    297.86856   -63464.403   -62932.183    5958.6483    5988.0597    5971.3826    5916.5024       65.172       65.172       65.172    2.6568437    129.30432 
  192500     297.0449   -63462.931   -62932.183    5995.6797    6015.2707    6007.3164    5964.4521       65.172       65.172       65.172    2.8552068    129.32119 
  193000    298.34678   -63465.262   -62932.187    5964.0604    5982.0022    5929.3224    5980.8565       65.172       65.172       65.172     2.868107    128.87355 
  193500    297.79735   -63464.276   -62932.182    5965.8412    5938.0908    5935.0932    6024.3396       65.172       65.172       65.172    2.7962937    129.09868 
  194000    294.71103   -63458.759    -62932.18    5949.6624    5935.5705    5931.2316    5982.1851       65.172       65.172       65.172    2.7305389    129.43598 
  194500    297.66256   -63464.034   -62932.181    6000.7295     6035.897    5981.2786    5985.0129       65.172       65.172       65.172    2.4815706    129.35454 
  195000    296.71554   -63462.346   -62932.186    5936.0494    5953.0798    5936.7854    5918.2829       65.172       65.172       65.172    3.0650858    128.80114 
  195500    298.41335   -63465.379   -62932.185    5960.8277    5962.1177    5966.9666     5953.399       65.172       65.172       65.172    2.5991002       128.85 
  196000    295.20245   -63459.633   -62932.177    5977.6556    5954.3664    5952.2729    6026.3276       65.172       65.172       65.172    2.7567408    129.91479 
  196500    296.72924   -63462.365    -62932.18    6012.4361    6026.5236    6016.2041    5994.5807       65.172       65.172       65.172    2.9031593    129.73135 
  197000    296.74865   -63462.399   -62932.179    6009.1696    5993.9065    6005.5426    6028.0598       65.172       65.172       65.172    2.7463811    129.80896 
  197500    297.61381   -63463.956   -62932.191    5928.5465     5922.325    5910.6336     5952.681       65.172       65.172       65.172    2.6714402    129.12992 
  198000    296.76252   -63462.421   -62932.177     6018.484    5992.3482    6037.8394    6025.2644       65.172       65.172       65.172      2.96458    129.99632 
  198500     297.3693   -63463.515   -62932.187    5939.7246    5962.4362    5964.9489    5891.7886       65.172       65.172       65.172    2.5411121    129.04241 
  199000     298.4736   -63465.487   -62932.186    5958.4816    5966.8859    5971.5888      5936.97       65.172       65.172       65.172    2.7918965    129.23163 
  199500    297.67555   -63464.059   -62932.183    5986.3722    6007.2782    6002.3806    5949.4578       65.172       65.172       65.172    2.6791691    129.36622 
  200000    295.21219   -63459.652   -62932.178    5967.9953    5958.2045    5987.4105    5958.3709       65.172       65.172       65.172    2.5423356    129.82989 
Loop time of 146.523 on 8 procs for 100000 steps with 13824 atoms

Performance: 58.967 ns/day, 0.407 hours/ns, 682.485 timesteps/s
99.1% CPU use with 8 MPI tasks x 1 OpenMP threads

MPI task timing breakdown:
Section |  min time  |  avg time  |  max time  |%varavg| %total
---------------------------------------------------------------
Pair    | 138.32     | 139.88     | 141.51     |   9.7 | 95.47
Neigh   | 0          | 0          | 0          |   0.0 |  0.00
Comm    | 3.7222     | 5.3373     | 6.921      |  49.8 |  3.64
Output  | 0.2337     | 0.23381    | 0.23434    |   0.0 |  0.16
Modify  | 0.58884    | 0.59588    | 0.61034    |   0.9 |  0.41
Other   |            | 0.4743     |            |       |  0.32

Nlocal:        1728.00 ave        1760 max        1708 min
Histogram: 1 1 1 2 2 0 0 0 0 1
Nghost:        2007.00 ave        2027 max        1975 min
Histogram: 1 0 0 0 0 2 2 1 1 1
Neighs:         0.00000 ave           0 max           0 min
Histogram: 8 0 0 0 0 0 0 0 0 0
FullNghs:      48384.0 ave       49280 max       47824 min
Histogram: 1 1 1 2 2 0 0 0 0 1

Total # of neighbors = 387072
Ave neighs/atom = 28.000000
Neighbor list builds = 0
Dangerous builds = 0
unfix           NVE

# -------------------- sample the data -----------------------

### vels/pos print frequency
variable	dt_dump equal 24

### print pos to hdf5 file
#dump            POS all h5md ${dt_dump} pos.h5 position species
#dump_modify     POS sort id
dump            pos all custom ${dt_dump} pos.dat id type xu yu zu
dump            pos all custom 24 pos.dat id type xu yu zu
dump_modify     pos sort id

### run to collect pos/vels
fix             NVE all nve
run             262144
Per MPI rank memory allocation (min/avg/max) = 4.624 | 4.624 | 4.624 Mbytes
Step Temp PotEng TotEng Press Pxx Pyy Pzz Lx Ly Lz Fmax Fnorm 
  200000    295.21219   -63459.652   -62932.178    5967.9953    5958.2045    5987.4105    5958.3709       65.172       65.172       65.172    2.5423356    129.82989 
  200500    296.32608   -63461.646   -62932.182     5951.058    5968.4039    5901.5917    5983.1785       65.172       65.172       65.172    2.7435994    129.31909 
  201000    297.29319   -63463.376   -62932.183    5986.6743    6016.2264    6044.6246    5899.1718       65.172       65.172       65.172    2.5448336    129.27245 
  201500    296.28464   -63461.572   -62932.182    5982.9804     5955.491    6000.0291     5993.421       65.172       65.172       65.172    2.5789663    129.40854 
  202000    295.93599   -63460.948    -62932.18    5989.4478    5975.5998    5997.1415    5995.6022       65.172       65.172       65.172    2.8750277    129.20769 
  202500    297.37431    -63463.52   -62932.182    5947.1891    5959.7684      5951.75    5930.0489       65.172       65.172       65.172    2.7748113    129.27196 
  203000    296.20509   -63461.429    -62932.18    5987.9407    5934.8239    6028.5964    6000.4017       65.172       65.172       65.172    3.0347285    129.26878 
  203500    296.74006    -63462.39   -62932.186    5963.6342    5968.0271     5945.199    5977.6764       65.172       65.172       65.172    2.9476237    128.89105 
  204000     299.5136   -63467.347   -62932.187    5917.6678    5882.4309    5930.9195    5939.6529       65.172       65.172       65.172     2.966695    128.48333 
  204500    297.02901   -63462.901    -62932.18     5939.246    5973.1474    5955.8327     5888.758       65.172       65.172       65.172     2.916396    129.25588 
  205000    297.50158   -63463.747   -62932.182    5959.3408    5900.8214    5998.9694    5978.2315       65.172       65.172       65.172    2.7460649    129.27114 
  205500    295.57637   -63460.304   -62932.179     5927.771    5898.9526    5948.1299    5936.2305       65.172       65.172       65.172    2.5358481    129.34932 
  206000    298.12631   -63464.866   -62932.185    5952.6325    5960.2348    5936.3072    5961.3555       65.172       65.172       65.172    2.7792699    128.95045 
  206500    294.35355   -63458.116   -62932.176    5975.4951     5985.017    5978.2175    5963.2508       65.172       65.172       65.172    2.6093125    129.59713 
  207000    295.53611   -63460.227   -62932.174    5992.7771    5987.0534    6032.1333    5959.1445       65.172       65.172       65.172    2.6267137    129.93458 
  207500    294.83688   -63458.983   -62932.179    5966.2277    5900.0914    6027.4462    5971.1455       65.172       65.172       65.172    2.5714001    129.36082 
  208000    296.67828   -63462.276   -62932.182    5974.0939    5908.0897    5994.3821      6019.81       65.172       65.172       65.172    2.7152976     129.1191 
  208500    298.86504   -63466.186   -62932.185    5962.8152    5964.1169    5975.7976    5948.5313       65.172       65.172       65.172    2.5978032    128.86298 
  209000    298.51512   -63465.558   -62932.183    5991.0296    5956.0925    6025.7768    5991.2196       65.172       65.172       65.172    2.8017901    129.20227 
  209500    298.50053   -63465.533   -62932.183    5987.4407    5991.1318     5941.691    6029.4994       65.172       65.172       65.172    2.6793571    129.28303 
  210000    295.04984   -63459.364    -62932.18    5944.7921    5968.5245    5970.1921    5895.6599       65.172       65.172       65.172    2.8043176    129.18796 
  210500    297.08558   -63463.004   -62932.182    5983.9444    5975.8693    5982.8124    5993.1514       65.172       65.172       65.172    2.5998065    129.15263 
  211000     299.2907   -63466.948   -62932.186    5993.7572    5980.6194    5981.9667    6018.6856       65.172       65.172       65.172    2.6615706       128.88 
  211500    297.64894    -63464.01   -62932.182     5988.511    5977.7621    5998.3548    5989.4162       65.172       65.172       65.172    3.0000723    129.45834 
  212000    298.44518   -63465.434   -62932.184    5982.2392    5907.2124    6000.4661     6039.039       65.172       65.172       65.172     2.487049    129.15853 
  212500    296.75399   -63462.413   -62932.184    5939.2823    5922.6155     5954.121    5941.1106       65.172       65.172       65.172     2.726691    129.22088 
  213000    293.48056   -63456.554   -62932.174    6002.3986    6050.4687    5957.3298    5999.3973       65.172       65.172       65.172    2.6229783    130.09143 
  213500    293.70444   -63456.954   -62932.174    6007.7949    6054.0211    5940.5912    6028.7723       65.172       65.172       65.172    2.7756295    130.24253 
  214000    297.17059   -63463.157   -62932.184    5974.1508    5954.9409    5993.5063    5974.0052       65.172       65.172       65.172    2.7774436    129.38445 
  214500    295.46174   -63460.099   -62932.179    5980.2207    5994.7731    6002.3757    5943.5132       65.172       65.172       65.172    2.7245837     129.8668 
  215000    297.45476   -63463.666   -62932.185    6015.8106    6050.0477    6005.6382    5991.7458       65.172       65.172       65.172    2.6733559    129.14251 
  215500    297.10472   -63463.038   -62932.182    5959.5538    5953.0365    5958.7889    5966.8359       65.172       65.172       65.172    2.8532015    129.44541 
  216000    294.47348   -63458.328   -62932.173    6011.4714    6031.2698    6028.5084     5974.636       65.172       65.172       65.172    2.8308548    130.12489 
  216500    299.45399   -63467.248   -62932.195    5918.5458    5965.2022    5929.2417    5861.1934       65.172       65.172       65.172    2.9335633     128.3331 
  217000    297.88605   -63464.433   -62932.182    6000.5957    6021.2564    5953.8938     6026.637       65.172       65.172       65.172    2.5881708     129.4809 
  217500     296.3479   -63461.685   -62932.181    5970.4376    5986.1101    5982.5518     5942.651       65.172       65.172       65.172    2.5674686    129.18732 
  218000    296.12434   -63461.287   -62932.183    5974.9231    6011.1197    5972.4402    5941.2093       65.172       65.172       65.172    2.6622482    129.29576 
  218500    294.35126   -63458.115   -62932.179    6014.5804    5988.1393    6075.5447    5980.0573       65.172       65.172       65.172    2.8770993    129.58808 
  219000    297.13549   -63463.089   -62932.178      6031.04    6081.5764    5973.8385    6037.7051       65.172       65.172       65.172    2.7837852    129.74943 
  219500    297.43076   -63463.619   -62932.181    5989.9444    5973.8805    6013.0779    5982.8748       65.172       65.172       65.172    2.6079141    129.66474 
  220000    299.16995   -63466.733   -62932.187    5982.2574    5977.6195    5935.7583    6033.3943       65.172       65.172       65.172    2.8745784    128.85831 
  220500    296.96711   -63462.792   -62932.183    5992.4125    6007.8815    5947.0623    6022.2938       65.172       65.172       65.172    2.9209264    129.42147 
  221000    296.36556   -63461.721   -62932.186    5919.4761    5900.2602     5941.634     5916.534       65.172       65.172       65.172     2.582711    128.98279 
  221500    298.67812    -63465.85   -62932.183     5998.118    6036.9951    5938.6517    6018.7073       65.172       65.172       65.172    2.6485434    129.17647 
  222000     298.9333   -63466.309   -62932.186    5981.9088    5973.3243    6013.7141    5958.6881       65.172       65.172       65.172    2.6040902    128.78889 
  222500    299.21673   -63466.818   -62932.189    5951.0018    5992.7522    5961.2913    5898.9618       65.172       65.172       65.172    2.6363947    128.59489 
  223000    296.58996   -63462.115   -62932.179    6036.6397    6030.1275    6058.8285    6020.9631       65.172       65.172       65.172    2.7958968    129.61936 
  223500    298.69784    -63465.89   -62932.188    5964.6795    5974.1191    5953.3466    5966.5729       65.172       65.172       65.172    2.5859725    128.78227 
  224000    297.96046   -63464.568   -62932.183    5995.5701    6016.3706    6012.6347     5957.705       65.172       65.172       65.172    2.9814723    129.44076 
  224500    296.53514   -63462.022   -62932.184    5992.0004    6014.1556    5970.0544    5991.7913       65.172       65.172       65.172    2.7253645    129.41053 
  225000    295.99321   -63461.042   -62932.172    6070.0815    6085.7288    6019.7462    6104.7693       65.172       65.172       65.172    2.8759352    130.45874 
  225500     295.9454   -63460.969   -62932.185    5970.2913    5980.7826    5989.6576    5940.4336       65.172       65.172       65.172    2.7464103    129.26275 
  226000    297.46283   -63463.684   -62932.189    5934.0832    5976.2578    5901.2983    5924.6936       65.172       65.172       65.172    2.9612529    128.93218 
  226500    298.68436   -63465.867   -62932.189    5988.5864     5927.051    6054.1817    5984.5263       65.172       65.172       65.172    2.5634474    129.10948 
  227000    297.55891   -63463.854   -62932.187    5964.2404    5992.4247     5936.339    5963.9574       65.172       65.172       65.172    3.0201287    129.16188 
  227500    296.75456   -63462.409   -62932.179      6001.52    5972.4936    6019.7162    6012.3503       65.172       65.172       65.172    2.7933155      129.743 
  228000    298.04717   -63464.726   -62932.186    5988.3867    5978.7854    6003.3157    5983.0589       65.172       65.172       65.172    2.9789078    129.23321 
  228500    294.30954   -63458.039   -62932.177    6012.9666    6017.7309    5971.7825    6049.3866       65.172       65.172       65.172    3.2314181    129.84469 
  229000    296.87564    -63462.63   -62932.184    5978.3451    5987.7748    5951.0261    5996.2345       65.172       65.172       65.172     2.680747    129.31552 
  229500    296.89137   -63462.657   -62932.182    5986.3588    6006.8722    6018.1858    5934.0183       65.172       65.172       65.172    2.6398403    129.44168 
  230000    298.71402   -63465.915   -62932.184    5990.9568    6004.2402    6002.1213    5966.5089       65.172       65.172       65.172    2.8972013    129.06408 
  230500    295.77358   -63460.657    -62932.18    5955.4249    6032.7824    5900.9722      5932.52       65.172       65.172       65.172    2.7965123    129.50055 
  231000    299.12508   -63466.653   -62932.187    5929.8319    5947.4947    5895.7762    5946.2247       65.172       65.172       65.172    2.9047585    128.75796 
  231500    297.12164   -63463.069   -62932.183    5950.2069    5903.5245    6001.0869    5946.0093       65.172       65.172       65.172    2.6474058    129.23301 
  232000    296.03471   -63461.119   -62932.175    6005.3695    6003.0937    6025.9194    5987.0955       65.172       65.172       65.172    2.8339839    129.80128 
  232500    296.35552   -63461.697    -62932.18    5993.2469     5956.734    6044.5981    5978.4085       65.172       65.172       65.172    2.7858195    129.37484 
  233000    297.63886       -63464    -62932.19    5903.8654    5947.1151    5900.5621     5863.919       65.172       65.172       65.172    2.9459281     128.5114 
  233500    296.74394   -63462.391    -62932.18    6020.3176    6032.7196    6057.3141    5970.9192       65.172       65.172       65.172    2.6694933     129.3867 
  234000    294.09218   -63457.648   -62932.175    6019.8867    6009.2253    6054.1522    5996.2825       65.172       65.172       65.172    2.6968407     129.8332 
  234500    297.19249   -63463.195   -62932.183    5982.0737    6008.9146    5940.7661    5996.5402       65.172       65.172       65.172    3.0925011    129.16977 
  235000    296.87908   -63462.636   -62932.184    5944.9936    5984.7326     5940.811    5909.4373       65.172       65.172       65.172    2.6213904    129.04168 
  235500    296.60136   -63462.137   -62932.181    5954.9433    5892.1424    5978.7114     5993.976       65.172       65.172       65.172    2.7511822    129.26666 
  236000    297.63333   -63463.981   -62932.181    5980.7849    5954.4223    5990.9087    5997.0236       65.172       65.172       65.172    2.6939332    129.20907 
  236500    300.47927   -63469.075    -62932.19    5927.8627    5929.3834    5939.0045    5915.2002       65.172       65.172       65.172      2.86655    128.58032 
  237000    297.51687   -63463.778   -62932.186    5940.5571    5975.3212    5927.1693    5919.1809       65.172       65.172       65.172    2.7587506     128.8231 
  237500    299.54419   -63467.406   -62932.192    5925.8473    5943.3885     5884.189    5949.9643       65.172       65.172       65.172    2.9253665    128.48816 
  238000    294.09521   -63457.656   -62932.177    5941.0105    5912.7698    5970.2873    5939.9745       65.172       65.172       65.172    3.1104418    129.65802 
  238500    295.17332   -63459.581   -62932.176    5955.4263    5973.8086    5890.6758    6001.7944       65.172       65.172       65.172    2.8596516    129.60078 
  239000    297.85082   -63464.373   -62932.184    5957.9184    5915.2327    5954.9879    6003.5346       65.172       65.172       65.172     3.030812    128.99159 
  239500    297.40678   -63463.578   -62932.183    5977.9781    5982.1191    5996.4701    5955.3449       65.172       65.172       65.172    2.6441055    129.28039 
  240000    293.20679   -63456.063   -62932.172    5960.4764    5981.5301    5917.3897    5982.5092       65.172       65.172       65.172    2.9653477    129.90351 
  240500    295.77284   -63460.654   -62932.178    5964.4244    6002.8199    5935.1869    5955.2665       65.172       65.172       65.172    2.8070796    129.62208 
  241000    297.26313   -63463.321   -62932.182    5988.0291    5959.5477    5997.4468    6007.0929       65.172       65.172       65.172    2.7360973    129.46104 
  241500    297.93068   -63464.517   -62932.185    5961.0895    6004.1017    5954.7643    5924.4024       65.172       65.172       65.172    2.9884242    129.22438 
  242000    296.95011   -63462.764   -62932.185    5971.0372    5951.7299    5914.9608    6046.4208       65.172       65.172       65.172    2.6882018    129.12025 
  242500    294.82443   -63458.961    -62932.18    5998.2245    5988.7611    5968.3922    6037.5202       65.172       65.172       65.172    2.7418141    129.65499 
  243000    296.80625   -63462.502    -62932.18    5991.7456    5977.6621    5985.6522    6011.9227       65.172       65.172       65.172    2.8159546    129.65923 
  243500    298.18051   -63464.965   -62932.187    5983.5692     6003.999    5957.4361    5989.2723       65.172       65.172       65.172    2.6628587     129.0175 
  244000    295.80601   -63460.716   -62932.181     5992.948    5988.8263     5965.046    6024.9718       65.172       65.172       65.172     2.953412    129.42903 
  244500    296.22404   -63461.464   -62932.182     5961.632    5998.5066    5870.7239    6015.6655       65.172       65.172       65.172    2.7398129    129.30768 
  245000    299.69678    -63467.68   -62932.193    5888.1119    5848.4637    5928.5784    5887.2936       65.172       65.172       65.172    2.8107488    128.29857 
  245500    299.18923   -63466.767   -62932.187    5972.0958    6014.6439    5923.1668    5978.4766       65.172       65.172       65.172    2.6885699    128.74085 
  246000    295.44006   -63460.055   -62932.173    6002.6624    5957.1186      6024.53    6026.3386       65.172       65.172       65.172    2.9661614    130.04684 
  246500    296.67789   -63462.278   -62932.185    5957.6053    5986.8687    5962.0797    5923.8675       65.172       65.172       65.172    2.7709683    128.94065 
  247000    296.59017   -63462.117   -62932.181    5950.0346    5896.4261    5976.7359    5976.9419       65.172       65.172       65.172    3.0966996     129.3589 
  247500    294.72861   -63458.786   -62932.176    5971.7471    5993.5724    5936.2775    5985.3913       65.172       65.172       65.172     2.662024    129.83818 
  248000    297.00167   -63462.854   -62932.182    5968.0572    6004.2385    5933.2035    5966.7294       65.172       65.172       65.172    2.8407048    129.30129 
  248500    297.31946   -63463.425   -62932.185    5954.7944    6019.2947    5946.5008    5898.5876       65.172       65.172       65.172    2.8246715    129.06099 
  249000     296.9335   -63462.734   -62932.184    5942.6912    5889.7529    5941.1389    5997.1816       65.172       65.172       65.172    2.9353796    129.46002 
  249500    295.12776   -63459.502   -62932.179    5942.3983    5910.1956    5938.5027    5978.4965       65.172       65.172       65.172    2.6472552     129.7026 
  250000     296.9077   -63462.685   -62932.181    5996.6412    5991.1325    5999.4163    5999.3749       65.172       65.172       65.172    2.6800079    129.41353 
  250500    296.51062   -63461.974    -62932.18    5991.6143    5976.6749    6010.6722    5987.4957       65.172       65.172       65.172    2.6938995    129.61815 
  251000    297.38584   -63463.543   -62932.185    5962.2335    5925.9966    5928.1813    6032.5227       65.172       65.172       65.172    2.5597202    129.45733 
  251500    297.19389   -63463.198   -62932.183    5975.1661    5925.6849    5978.1222    6021.6913       65.172       65.172       65.172    2.8565608     129.3479 
  252000    297.64222   -63463.999   -62932.183     5985.853    5999.0996    5951.1255    6007.3339       65.172       65.172       65.172    3.3293751    129.32902 
  252500    301.43657    -63470.79   -62932.194    5946.3539    5991.5526    5907.8612    5939.6479       65.172       65.172       65.172    2.5876783    128.08626 
  253000    297.83982   -63464.359    -62932.19    5913.1034    5870.8478    5924.9159    5943.5464       65.172       65.172       65.172    2.8633695    128.48225 
  253500     294.4503   -63458.286   -62932.173    6000.2852    5974.1206    6031.0816    5995.6535       65.172       65.172       65.172    2.6274297    129.97775 
  254000    300.24783   -63468.661   -62932.189    5950.1477    5933.3812    5878.3238    6038.7382       65.172       65.172       65.172    2.6130796     128.5127 
  254500    297.62569   -63463.966   -62932.179    5961.9105    5956.4235    5965.2805    5964.0275       65.172       65.172       65.172    2.6843641     129.4608 
  255000    294.94942   -63459.185   -62932.181    5956.8742    5970.5497    5953.9674    5946.1054       65.172       65.172       65.172    2.6886429    129.30061 
  255500    297.29672   -63463.382   -62932.183    5953.3468    5949.2842    5973.3932     5937.363       65.172       65.172       65.172    3.1128094    129.24993 
  256000    297.26633   -63463.324   -62932.179    6008.7216    6017.9195    5959.6326    6048.6128       65.172       65.172       65.172    2.7073155    129.56277 
  256500     297.7722    -63464.23   -62932.181    6016.7236    5995.9267    6042.9332     6011.311       65.172       65.172       65.172    2.6349561     129.3651 
  257000    297.26776   -63463.333   -62932.186    5957.1951    5967.0688    5937.4015    5967.1149       65.172       65.172       65.172    2.8209932     128.9583 
  257500    294.90813   -63459.111    -62932.18    5966.5377    6034.0426     5927.847    5937.7236       65.172       65.172       65.172    2.8288513    129.53796 
  258000    294.87357   -63459.041   -62932.172    6027.7845     6040.443    5999.1869    6043.7236       65.172       65.172       65.172    3.0126325    130.21544 
  258500    297.37003   -63463.513   -62932.183    5945.3858    5901.0235    5956.3553    5978.7785       65.172       65.172       65.172    2.8463648    129.10407 
  259000    297.45507   -63463.668   -62932.186    5970.5774    6034.9837    5932.5347    5944.2138       65.172       65.172       65.172    2.8275358    129.25046 
  259500    294.81334   -63458.942   -62932.181    5959.8868    5921.6337    5920.6885    6