ITEM: TIMESTEP
0
ITEM: NUMBER OF ATOMS
64
ITEM: BOX BOUNDS pp pp pp
  0.000000   10.861800
  0.000000   10.861800
  0.000000   10.861800
ITEM: ATOMS id type x y z
      1   0  0.000000000  0.000000000  0.000000000
      2   0  5.430900000  0.000000000  0.000000000
      3   0  0.000000000  5.430900000  0.000000000
      4   0  5.430900000  5.430900000  0.000000000
      5   0  0.000000000  0.000000000  5.430900000
      6   0  5.430900000  0.000000000  5.430900000
      7   0  0.000000000  5.430900000  5.430900000
      8   0  5.430900000  5.430900000  5.430900000
      9   0  4.073175000  1.357725000  4.073175000
     10   0  9.504075000  1.357725000  4.073175000
     11   0  4.073175000  6.788625000  4.073175000
     12   0  9.504075000  6.788625000  4.073175000
     13   0  4.073175000  1.357725000  9.504075000
     14   0  9.504075000  1.357725000  9.504075000
     15   0  4.073175000  6.788625000  9.504075000
     16   0  9.504075000  6.788625000  9.504075000
     17   0  0.000000000  2.715450000  2.715450000
     18   0  5.430900000  2.715450000  2.715450000
     19   0  0.000000000  8.146350000  2.715450000
     20   0  5.430900000  8.146350000  2.715450000
     21   0  0.000000000  2.715450000  8.146350000
     22   0  5.430900000  2.715450000  8.146350000
     23   0  0.000000000  8.146350000  8.146350000
     24   0  5.430900000  8.146350000  8.146350000
     25   0  4.073175000  4.073175000  1.357725000
     26   0  9.504075000  4.073175000  1.357725000
     27   0  4.073175000  9.504075000  1.357725000
     28   0  9.504075000  9.504075000  1.357725000
     29   0  4.073175000  4.073175000  6.788625000
     30   0  9.504075000  4.073175000  6.788625000
     31   0  4.073175000  9.504075000  6.788625000
     32   0  9.504075000  9.504075000  6.788625000
     33   0  2.715450000  0.000000000  2.715450000
     34   0  8.146350000  0.000000000  2.715450000
     35   0  2.715450000  5.430900000  2.715450000
     36   0  8.146350000  5.430900000  2.715450000
     37   0  2.715450000  0.000000000  8.146350000
     38   0  8.146350000  0.000000000  8.146350000
     39   0  2.715450000  5.430900000  8.146350000
     40   0  8.146350000  5.430900000  8.146350000
     41   0  1.357725000  1.357725000  1.357725000
     42   0  6.788625000  1.357725000  1.357725000
     43   0  1.357725000  6.788625000  1.357725000
     44   0  6.788625000  6.788625000  1.357725000
     45   0  1.357725000  1.357725000  6.788625000
     46   0  6.788625000  1.357725000  6.788625000
     47   0  1.357725000  6.788625000  6.788625000
     48   0  6.788625000  6.788625000  6.788625000
     49   0  2.715450000  2.715450000  0.000000000
     50   0  8.146350000  2.715450000  0.000000000
     51   0  2.715450000  8.146350000  0.000000000
     52   0  8.146350000  8.146350000  0.000000000
     53   0  2.715450000  2.715450000  5.430900000
     54   0  8.146350000  2.715450000  5.430900000
     55   0  2.715450000  8.146350000  5.430900000
     56   0  8.146350000  8.146350000  5.430900000
     57   0  1.357725000  4.073175000  4.073175000
     58   0  6.788625000  4.073175000  4.073175000
     59   0  1.357725000  9.504075000  4.073175000
     60   0  6.788625000  9.504075000  4.073175000
     61   0  1.357725000  4.073175000  9.504075000
     62   0  6.788625000  4.073175000  9.504075000
     63   0  1.357725000  9.504075000  9.504075000
     64   0  6.788625000  9.504075000  9.504075000
ITEM: TIMESTEP
1
ITEM: NUMBER OF ATOMS
64
ITEM: BOX BOUNDS pp pp pp
  0.000000   10.861800
  0.000000   10.861800
  0.000000   10.861800
ITEM: ATOMS id type x y z
      1   0 -0.025699236  0.001753963  0.027665113
      2   0  5.422317114  0.022198043  0.023822643
      3   0 -0.021659515  5.435252649  0.015528029
      4   0  5.435566664  5.454712541 -0.016301607
      5   0  0.019478249  0.021590543  5.435100584
      6   0  5.439112390  0.013669684  5.416001303
      7   0 -0.034560075  5.423798447  5.426660965
      8   0  5.421160333  5.439801354  5.450498815
      9   0  4.088958173  1.326306049  4.080033141
     10   0  9.488927460  1.375611669  4.090728646
     11   0  4.078048147  6.777282783  4.077520698
     12   0  9.501192604  6.778582723  4.083638606
     13   0  4.074835878  1.365200525  9.498132944
     14   0  9.500799624  1.354542710  9.502144206
     15   0  4.083932201  6.798603301  9.505400140
     16   0  9.492163516  6.772881255  9.507594875
     17   0  0.008337518  2.710544594  2.699754699
     18   0  5.445772954  2.702523480  2.699342602
     19   0 -0.003752861  8.144921130  2.711859741
     20   0  5.439076437  8.145296948  2.724191034
     21   0  0.008477852  2.720613265  8.133056786
     22   0  5.429994778  2.719516223  8.152579894
     23   0 -0.006756909  8.139957939  8.148443069
     24   0  5.437211140  8.162281980  8.139190879
     25   0  4.085285798  4.087929561  1.343398177
     26   0  9.515666930  4.083907870  1.367093085
     27   0  4.076472751  9.488255874  1.366115415
     28   0  9.499927856  9.490225010  1.344046084
     29   0  4.055662411  4.076452765  6.784137665
     30   0  9.503577204  4.068397003  6.765021657
     31   0  4.085094739  9.483509376  6.786734395
     32   0  9.513635231  9.522314895  6.795233971
     33   0  2.719963078 -0.004354061  2.699163817
     34   0  8.142967527  0.005212904  2.728284846
     35   0  2.731781694  5.437376131  2.711234210
     36   0  8.130713787  5.441424650  2.694999512
     37   0  2.716048811 -0.013374026  8.142490477
     38   0  8.154439543  0.000680275  8.146555505
     39   0  2.717205593  5.445257236  8.172700727
     40   0  8.156774830  5.441167225  8.133352662
     41   0  1.351949455  1.365493794  1.368579523
     42   0  6.777029051  1.388531129  1.353659428
     43   0  1.369438148  6.769571230  1.346688434
     44   0  6.800258748  6.788851469  1.376456609
     45   0  1.365328151  1.352766588  6.767791307
     46   0  6.780978184  1.350689378  6.754798748
     47   0  1.354892025  6.777864541  6.782628743
     48   0  6.774169356  6.788832786  6.809363761
     49   0  2.710611068  2.710344411 -0.002085357
     50   0  8.139760798  2.711643482  0.004779301
     51   0  2.705891073  8.141044988 -0.003412778
     52   0  8.138325411  8.153707675  0.006928091
     53   0  2.730399204  2.703645613  5.428788357
     54   0  8.160846267  2.701519307  5.454590238
     55   0  2.701818550  8.139165028  5.437701225
     56   0  8.137241946  8.157194530  5.438023060
     57   0  1.355135981  4.063931065  4.068972895
     58   0  6.776167493  4.045917965  4.057975432
     59   0  1.364111087  9.501185109  4.079011262
     60   0  6.783591859  9.493085574  4.054223440
     61   0  1.373624068  4.055534894  9.514084257
     62   0  6.794336786  4.081033838  9.524179323
     63   0  1.363717021  9.505043112  9.507291831
     64   0  6.792626161  9.521976441  9.486232864
