<?xml version="1.0" encoding="ISO-8859-1"?>
<modeling>
 <generator>
  <i name="program" type="string">vasp </i>
  <i name="version" type="string">5.4.4.18Apr17-6-g9f103f2a35  </i>
  <i name="subversion" type="string">(build Sep 15 2021 12:59:37) complex            parallel </i>
  <i name="platform" type="string">LinuxGNU </i>
  <i name="date" type="string">2022 10 04 </i>
  <i name="time" type="string">09:42:38 </i>
 </generator>
 <incar>
  <i type="string" name="SYSTEM"> si_2x2x2</i>
  <i type="string" name="PREC">low</i>
  <i type="string" name="ALGO">  VeryFast</i>
  <i type="int" name="NELM">   150</i>
  <i name="EDIFF">      0.00000100</i>
  <i type="int" name="NSW">   100</i>
  <i type="int" name="ISIF">     2</i>
  <i type="int" name="ISYM">     0</i>
  <i name="ENCUT">    250.00000000</i>
  <i name="POTIM">      3.00000000</i>
  <i name="TEBEG">    600.00000000</i>
  <i name="TEEND">    600.00000000</i>
  <i name="SMASS">      1.00000000</i>
  <i type="string" name="LREAL"> Auto</i>
  <i type="logical" name="LPLANE"> T  </i>
  <i type="int" name="ISMEAR">     0</i>
  <i name="SIGMA">      0.10000000</i>
  <i type="int" name="NWRITE">     2</i>
  <i type="logical" name="LWAVE"> T  </i>
  <i type="int" name="MDALGO">     2</i>
  <v type="int" name="KPOINT_BSE">    -1     0     0     0</v>
  <i type="int" name="NELM">   150</i>
  <i type="string" name="GGA"> PS</i>
 </incar>
 <structure name="primitive_cell" >
  <crystal>
   <varray name="basis" >
    <v>      10.86180000       0.00000000       0.00000000 </v>
    <v>       0.00000000      10.86180000       0.00000000 </v>
    <v>       0.00000000       0.00000000      10.86180000 </v>
   </varray>
   <i name="volume">   1281.46103541 </i>
   <varray name="rec_basis" >
    <v>       0.09206577       0.00000000       0.00000000 </v>
    <v>       0.00000000       0.09206577       0.00000000 </v>
    <v>       0.00000000       0.00000000       0.09206577 </v>
   </varray>
  </crystal>
  <varray name="positions" >
   <v>       0.00000000       0.00000000       0.00000000 </v>
   <v>      -0.12500000       0.12500000      -0.12500000 </v>
   <v>      -0.12500000      -0.12500000       0.12500000 </v>
   <v>       0.12500000       0.12500000       0.12500000 </v>
   <v>       0.12500000      -0.12500000      -0.12500000 </v>
   <v>       0.00000000       0.25000000       0.25000000 </v>
   <v>       0.00000000      -0.25000000       0.25000000 </v>
   <v>       0.00000000       0.25000000      -0.25000000 </v>
   <v>       0.00000000      -0.25000000      -0.25000000 </v>
   <v>       0.25000000       0.00000000       0.25000000 </v>
   <v>      -0.25000000       0.00000000       0.25000000 </v>
   <v>       0.25000000       0.00000000      -0.25000000 </v>
   <v>      -0.25000000       0.00000000      -0.25000000 </v>
   <v>       0.25000000       0.25000000       0.00000000 </v>
   <v>      -0.25000000       0.25000000       0.00000000 </v>
   <v>       0.25000000      -0.25000000       0.00000000 </v>
   <v>      -0.25000000      -0.25000000       0.00000000 </v>
   <v>      -0.12500000       0.12500000       0.37500000 </v>
   <v>       0.37500000       0.12500000      -0.12500000 </v>
   <v>      -0.12500000      -0.37500000      -0.12500000 </v>
   <v>      -0.12500000       0.37500000       0.12500000 </v>
   <v>       0.37500000      -0.12500000       0.12500000 </v>
   <v>      -0.12500000      -0.12500000      -0.37500000 </v>
   <v>      -0.37500000       0.12500000       0.12500000 </v>
   <v>       0.12500000      -0.37500000       0.12500000 </v>
   <v>       0.12500000       0.12500000      -0.37500000 </v>
   <v>       0.12500000      -0.12500000       0.37500000 </v>
   <v>       0.12500000       0.37500000      -0.12500000 </v>
   <v>      -0.37500000      -0.12500000      -0.12500000 </v>
   <v>      -0.50000000       0.00000000       0.00000000 </v>
   <v>       0.00000000      -0.50000000       0.00000000 </v>
   <v>       0.00000000       0.00000000      -0.50000000 </v>
   <v>       0.37500000       0.12500000       0.37500000 </v>
   <v>      -0.12500000      -0.37500000       0.37500000 </v>
   <v>       0.37500000      -0.37500000      -0.12500000 </v>
   <v>       0.37500000       0.37500000       0.12500000 </v>
   <v>      -0.12500000       0.37500000      -0.37500000 </v>
   <v>       0.37500000      -0.12500000      -0.37500000 </v>
   <v>      -0.37500000      -0.37500000       0.12500000 </v>
   <v>      -0.37500000       0.12500000      -0.37500000 </v>
   <v>       0.12500000      -0.37500000      -0.37500000 </v>
   <v>       0.12500000       0.37500000       0.37500000 </v>
   <v>      -0.37500000      -0.12500000       0.37500000 </v>
   <v>      -0.37500000       0.37500000      -0.12500000 </v>
   <v>      -0.50000000       0.25000000       0.25000000 </v>
   <v>      -0.50000000      -0.25000000       0.25000000 </v>
   <v>      -0.50000000       0.25000000      -0.25000000 </v>
   <v>      -0.50000000      -0.25000000      -0.25000000 </v>
   <v>       0.25000000      -0.50000000       0.25000000 </v>
   <v>      -0.25000000      -0.50000000       0.25000000 </v>
   <v>       0.25000000      -0.50000000      -0.25000000 </v>
   <v>      -0.25000000      -0.50000000      -0.25000000 </v>
   <v>       0.25000000       0.25000000      -0.50000000 </v>
   <v>      -0.25000000       0.25000000      -0.50000000 </v>
   <v>       0.25000000      -0.25000000      -0.50000000 </v>
   <v>      -0.25000000      -0.25000000      -0.50000000 </v>
   <v>       0.37500000      -0.37500000       0.37500000 </v>
   <v>       0.37500000       0.37500000      -0.37500000 </v>
   <v>      -0.37500000      -0.37500000      -0.37500000 </v>
   <v>      -0.37500000       0.37500000       0.37500000 </v>
   <v>      -0.50000000      -0.50000000       0.00000000 </v>
   <v>      -0.50000000       0.00000000      -0.50000000 </v>
   <v>       0.00000000      -0.50000000      -0.50000000 </v>
   <v>      -0.50000000      -0.50000000      -0.50000000 </v>
  </varray>
 </structure>
 <varray name="primitive_index" >
  <v type="int" >        1 </v>
  <v type="int" >       14 </v>
  <v type="int" >       28 </v>
  <v type="int" >       41 </v>
  <v type="int" >       63 </v>
  <v type="int" >       17 </v>
  <v type="int" >       19 </v>
  <v type="int" >       21 </v>
  <v type="int" >       23 </v>
  <v type="int" >       33 </v>
  <v type="int" >       34 </v>
  <v type="int" >       37 </v>
  <v type="int" >       38 </v>
  <v type="int" >       49 </v>
  <v type="int" >       50 </v>
  <v type="int" >       51 </v>
  <v type="int" >       52 </v>
  <v type="int" >       10 </v>
  <v type="int" >       13 </v>
  <v type="int" >       16 </v>
  <v type="int" >       26 </v>
  <v type="int" >       27 </v>
  <v type="int" >       32 </v>
  <v type="int" >       42 </v>
  <v type="int" >       43 </v>
  <v type="int" >       45 </v>
  <v type="int" >       59 </v>
  <v type="int" >       61 </v>
  <v type="int" >       64 </v>
  <v type="int" >        2 </v>
  <v type="int" >        3 </v>
  <v type="int" >        5 </v>
  <v type="int" >        9 </v>
  <v type="int" >       12 </v>
  <v type="int" >       15 </v>
  <v type="int" >       25 </v>
  <v type="int" >       30 </v>
  <v type="int" >       31 </v>
  <v type="int" >       44 </v>
  <v type="int" >       46 </v>
  <v type="int" >       47 </v>
  <v type="int" >       57 </v>
  <v type="int" >       60 </v>
  <v type="int" >       62 </v>
  <v type="int" >       18 </v>
  <v type="int" >       20 </v>
  <v type="int" >       22 </v>
  <v type="int" >       24 </v>
  <v type="int" >       35 </v>
  <v type="int" >       36 </v>
  <v type="int" >       39 </v>
  <v type="int" >       40 </v>
  <v type="int" >       53 </v>
  <v type="int" >       54 </v>
  <v type="int" >       55 </v>
  <v type="int" >       56 </v>
  <v type="int" >       11 </v>
  <v type="int" >       29 </v>
  <v type="int" >       48 </v>
  <v type="int" >       58 </v>
  <v type="int" >        4 </v>
  <v type="int" >        6 </v>
  <v type="int" >        7 </v>
  <v type="int" >        8 </v>
 </varray>
 <kpoints>
  <generation param="Gamma">
   <v type="int" name="divisions">       1        1        1 </v>
   <v name="usershift">      0.00000000       0.00000000       0.00000000 </v>
   <v name="genvec1">      1.00000000       0.00000000       0.00000000 </v>
   <v name="genvec2">      0.00000000       1.00000000       0.00000000 </v>
   <v name="genvec3">      0.00000000       0.00000000       1.00000000 </v>
   <v name="shift">      0.00000000       0.00000000       0.00000000 </v>
  </generation>
  <varray name="kpointlist" >
   <v>       0.00000000       0.00000000       0.00000000 </v>
  </varray>
  <varray name="weights" >
   <v>       1.00000000 </v>
  </varray>
 </kpoints>
 <parameters>
  <separator name="general" >
   <i type="string" name="SYSTEM">si_2x2x2</i>
   <i type="logical" name="LCOMPAT"> F  </i>
  </separator>
  <separator name="electronic" >
   <i type="string" name="PREC">low</i>
   <i name="ENMAX">    250.00000000</i>
   <i name="ENAUG">    322.06900000</i>
   <i name="EDIFF">      0.00000100</i>
   <i type="int" name="IALGO">    48</i>
   <i type="int" name="IWAVPR">    12</i>
   <i type="int" name="NBANDS">   161</i>
   <i name="NELECT">    256.00000000</i>
   <i type="int" name="TURBO">     0</i>
   <i type="int" name="IRESTART">     0</i>
   <i type="int" name="NREBOOT">     0</i>
   <i type="int" name="NMIN">     0</i>
   <i name="EREF">      0.00000000</i>
   <separator name="electronic smearing" >
    <i type="int" name="ISMEAR">     0</i>
    <i name="SIGMA">      0.10000000</i>
    <i name="KSPACING">      0.50000000</i>
    <i type="logical" name="KGAMMA"> T  </i>
   </separator>
   <separator name="electronic projectors" >
    <i type="logical" name="LREAL"> T  </i>
    <v name="ROPT">     -0.01000000</v>
    <i type="int" name="LMAXPAW">  -100</i>
    <i type="int" name="LMAXMIX">     2</i>
    <i type="logical" name="NLSPLINE"> F  </i>
   </separator>
   <separator name="electronic startup" >
    <i type="int" name="ISTART">     0</i>
    <i type="int" name="ICHARG">     2</i>
    <i type="int" name="INIWAV">     1</i>
   </separator>
   <separator name="electronic spin" >
    <i type="int" name="ISPIN">     1</i>
    <i type="logical" name="LNONCOLLINEAR"> F  </i>
    <v name="MAGMOM">      1.00000000      1.00000000      1.00000000      1.00000000      1.00000000      1.00000000      1.00000000      1.00000000      1.00000000      1.00000000      1.00000000      1.00000000      1.00000000      1.00000000      1.00000000      1.00000000      1.00000000      1.00000000      1.00000000      1.00000000
      1.00000000      1.00000000      1.00000000      1.00000000      1.00000000      1.00000000      1.00000000      1.00000000      1.00000000      1.00000000      1.00000000      1.00000000      1.00000000      1.00000000      1.00000000      1.00000000      1.00000000      1.00000000      1.00000000      1.00000000
      1.00000000      1.00000000      1.00000000      1.00000000      1.00000000      1.00000000      1.00000000      1.00000000      1.00000000      1.00000000      1.00000000      1.00000000      1.00000000      1.00000000      1.00000000      1.00000000      1.00000000      1.00000000      1.00000000      1.00000000
      1.00000000      1.00000000      1.00000000      1.00000000</v>
    <i name="NUPDOWN">     -1.00000000</i>
    <i type="logical" name="LSORBIT"> F  </i>
    <v name="SAXIS">      0.00000000      0.00000000      1.00000000</v>
    <i type="logical" name="LSPIRAL"> F  </i>
    <v name="QSPIRAL">      0.00000000      0.00000000      0.00000000</v>
    <i type="logical" name="LZEROZ"> F  </i>
   </separator>
   <separator name="electronic exchange-correlation" >
    <i type="logical" name="LASPH"> F  </i>
    <i type="logical" name="LMETAGGA"> F  </i>
   </separator>
   <separator name="electronic convergence" >
    <i type="int" name="NELM">   150</i>
    <i type="int" name="NELMDL">     0</i>
    <i type="int" name="NELMIN">     2</i>
    <i name="ENINI">    250.00000000</i>
    <separator name="electronic convergence detail" >
     <i type="logical" name="LDIAG"> T  </i>
     <i type="logical" name="LSUBROT"> F  </i>
     <i name="WEIMIN">      0.00100000</i>
     <i name="EBREAK">      0.00000000</i>
     <i name="DEPER">      0.30000000</i>
     <i type="int" name="NRMM">     4</i>
     <i name="TIME">      0.40000000</i>
    </separator>
   </separator>
   <separator name="electronic mixer" >
    <i name="AMIX">      0.40000000</i>
    <i name="BMIX">      1.00000000</i>
    <i name="AMIN">      0.10000000</i>
    <i name="AMIX_MAG">      1.60000000</i>
    <i name="BMIX_MAG">      1.00000000</i>
    <separator name="electronic mixer details" >
     <i type="int" name="IMIX">     4</i>
     <i type="logical" name="MIXFIRST"> F  </i>
     <i type="int" name="MAXMIX">   -45</i>
     <i name="WC">    100.00000000</i>
     <i type="int" name="INIMIX">     1</i>
     <i type="int" name="MIXPRE">     1</i>
     <i type="int" name="MREMOVE">     5</i>
    </separator>
   </separator>
   <separator name="electronic dipolcorrection" >
    <i type="logical" name="LDIPOL"> F  </i>
    <i type="logical" name="LMONO"> F  </i>
    <i type="int" name="IDIPOL">     0</i>
    <i name="EPSILON">      1.00000000</i>
    <v name="DIPOL">   -100.00000000   -100.00000000   -100.00000000</v>
    <i name="EFIELD">      0.00000000</i>
   </separator>
  </separator>
  <separator name="grids" >
   <i type="int" name="NGX">    42</i>
   <i type="int" name="NGY">    42</i>
   <i type="int" name="NGZ">    42</i>
   <i type="int" name="NGXF">    48</i>
   <i type="int" name="NGYF">    48</i>
   <i type="int" name="NGZF">    48</i>
   <i type="logical" name="ADDGRID"> F  </i>
  </separator>
  <separator name="ionic" >
   <i type="int" name="NSW">   100</i>
   <i type="int" name="IBRION">     0</i>
   <i type="int" name="MDALGO">     2</i>
   <i type="int" name="ISIF">     2</i>
   <i name="PSTRESS">      0.00000000</i>
   <i name="EDIFFG">      0.00001000</i>
   <i type="int" name="NFREE">     0</i>
   <i name="POTIM">      3.00000000</i>
   <i name="SMASS">      1.00000000</i>
   <i name="SCALEE">      1.00000000</i>
  </separator>
  <separator name="ionic md" >
   <i name="TEBEG">    600.00000000</i>
   <i name="TEEND">    600.00000000</i>
   <i type="int" name="NBLOCK">     1</i>
   <i type="int" name="KBLOCK">   100</i>
   <i type="int" name="NPACO">   256</i>
   <i name="APACO">     16.00000000</i>
  </separator>
  <separator name="symmetry" >
   <i type="int" name="ISYM">     0</i>
   <i name="SYMPREC">      0.00001000</i>
  </separator>
  <separator name="dos" >
   <i type="int" name="LORBIT">     0</i>
   <v name="RWIGS">     -1.00000000</v>
   <i type="int" name="NEDOS">   301</i>
   <i name="EMIN">     10.00000000</i>
   <i name="EMAX">    -10.00000000</i>
   <i name="EFERMI">      0.00000000</i>
  </separator>
  <separator name="writing" >
   <i type="int" name="NWRITE">     2</i>
   <i type="logical" name="LWAVE"> T  </i>
   <i type="logical" name="LDOWNSAMPLE"> F  </i>
   <i type="logical" name="LCHARG"> T  </i>
   <i type="logical" name="LPARD"> F  </i>
   <i type="logical" name="LVTOT"> F  </i>
   <i type="logical" name="LVHAR"> F  </i>
   <i type="logical" name="LELF"> F  </i>
   <i type="logical" name="LOPTICS"> F  </i>
   <v name="STM">      0.00000000      0.00000000      0.00000000      0.00000000      0.00000000      0.00000000      0.00000000</v>
  </separator>
  <separator name="performance" >
   <i type="int" name="NPAR">     1</i>
   <i type="int" name="NSIM">     4</i>
   <i type="int" name="NBLK">    -1</i>
   <i type="logical" name="LPLANE"> T  </i>
   <i type="logical" name="LSCALAPACK"> T  </i>
   <i type="logical" name="LSCAAWARE"> F  </i>
   <i type="logical" name="LSCALU"> F  </i>
   <i type="logical" name="LASYNC"> F  </i>
   <i type="logical" name="LORBITALREAL"> F  </i>
  </separator>
  <separator name="miscellaneous" >
   <i type="int" name="IDIOT">     3</i>
   <i type="int" name="ISPECIAL">     0</i>
   <i type="logical" name="LMUSIC"> F  </i>
   <v name="POMASS">     28.08500000</v>
   <v name="DARWINR">      0.00000000</v>
   <v name="DARWINV">      1.00000000</v>
   <i type="logical" name="LCORR"> T  </i>
  </separator>
  <i type="logical" name="GGA_COMPAT"> T  </i>
  <i type="logical" name="LBERRY"> F  </i>
  <i type="int" name="ICORELEVEL">     0</i>
  <i type="logical" name="LDAU"> F  </i>
  <i type="int" name="I_CONSTRAINED_M">     0</i>
  <separator name="electronic exchange-correlation" >
   <i type="string" name="GGA">PS</i>
   <i type="int" name="VOSKOWN">     0</i>
   <i type="logical" name="LHFCALC"> F  </i>
   <i type="string" name="PRECFOCK"></i>
   <i type="logical" name="LSYMGRAD"> F  </i>
   <i type="logical" name="LHFONE"> F  </i>
   <i type="logical" name="LRHFCALC"> F  </i>
   <i type="logical" name="LTHOMAS"> F  </i>
   <i type="logical" name="LMODELHF"> F  </i>
   <i name="ENCUT4O">     -1.00000000</i>
   <i type="int" name="EXXOEP">     0</i>
   <i type="int" name="FOURORBIT">     0</i>
   <i name="AEXX">      0.00000000</i>
   <i name="HFALPHA">      0.00000000</i>
   <i name="MCALPHA">      0.00000000</i>
   <i name="ALDAX">      1.00000000</i>
   <i name="AGGAX">      1.00000000</i>
   <i name="ALDAC">      1.00000000</i>
   <i name="AGGAC">      1.00000000</i>
   <i type="int" name="NKREDX">     1</i>
   <i type="int" name="NKREDY">     1</i>
   <i type="int" name="NKREDZ">     1</i>
   <i type="logical" name="SHIFTRED"> F  </i>
   <i type="logical" name="ODDONLY"> F  </i>
   <i type="logical" name="EVENONLY"> F  </i>
   <i type="int" name="LMAXFOCK">     0</i>
   <i type="int" name="NMAXFOCKAE">     0</i>
   <i type="logical" name="LFOCKAEDFT"> F  </i>
   <i name="HFSCREEN">      0.00000000</i>
   <i name="HFSCREENC">      0.00000000</i>
   <i type="int" name="NBANDSGWLOW">     0</i>
  </separator>
  <separator name="vdW DFT" >
   <i type="logical" name="LUSE_VDW"> F  </i>
   <i name="Zab_VDW">     -0.84910000</i>
   <i name="PARAM1">      0.12340000</i>
   <i name="PARAM2">      1.00000000</i>
   <i name="PARAM3">      0.00000000</i>
  </separator>
  <separator name="model GW" >
   <i type="int" name="MODEL_GW">     0</i>
   <i name="MODEL_EPS0">     12.01369721</i>
   <i name="MODEL_ALPHA">      1.00000000</i>
  </separator>
  <separator name="linear response parameters" >
   <i type="logical" name="LEPSILON"> F  </i>
   <i type="logical" name="LRPA"> F  </i>
   <i type="logical" name="LNABLA"> F  </i>
   <i type="logical" name="LVEL"> F  </i>
   <i type="int" name="KINTER">     0</i>
   <i name="CSHIFT">      0.10000000</i>
   <i name="OMEGAMAX">     -1.00000000</i>
   <i name="DEG_THRESHOLD">      0.00200000</i>
   <i name="RTIME">     -0.10000000</i>
   <i name="WPLASMAI">      0.00000000</i>
   <v name="DFIELD">      0.00000000      0.00000000      0.00000000</v>
   <v name="WPLASMA">      0.00000000      0.00000000      0.00000000      0.00000000      0.00000000      0.00000000      0.00000000      0.00000000      0.00000000</v>
  </separator>
  <separator name="orbital magnetization" >
   <i type="logical" name="NUCIND"> F  </i>
   <v name="MAGPOS">      0.00000000      0.00000000      0.00000000</v>
   <i type="logical" name="LNICSALL"> T  </i>
   <i type="logical" name="ORBITALMAG"> F  </i>
   <i type="logical" name="LMAGBLOCH"> F  </i>
   <i type="logical" name="LCHIMAG"> F  </i>
   <i type="logical" name="LGAUGE"> T  </i>
   <i type="int" name="MAGATOM">     0</i>
   <v name="MAGDIPOL">      0.00000000      0.00000000      0.00000000</v>
   <v name="AVECCONST">      0.00000000      0.00000000      0.00000000</v>
  </separator>
  <separator name="response functions" >
   <i type="logical" name="LADDER"> F  </i>
   <i type="logical" name="LRPAFORCE"> F  </i>
   <i type="logical" name="LFXC"> F  </i>
   <i type="logical" name="LHARTREE"> T  </i>
   <i type="int" name="IBSE">     0</i>
   <v type="int" name="KPOINT">    -1     0     0     0</v>
   <i type="logical" name="LTCTE"> F  </i>
   <i type="logical" name="LTETE"> F  </i>
   <i type="logical" name="LTRIPLET"> F  </i>
   <i type="logical" name="LFXCEPS"> F  </i>
   <i type="logical" name="LFXHEG"> F  </i>
   <i type="int" name="NATURALO">     2</i>
   <i type="logical" name="L2ORDER"> F  </i>
   <i type="logical" name="LMP2LT"> F  </i>
   <i type="logical" name="LUSEW"> F  </i>
   <i name="ENCUTGW">     -2.00000000</i>
   <i name="ENCUTGWSOFT">     -2.00000000</i>
   <i name="ENCUTLF">     -1.00000000</i>
   <i type="int" name="LMAXMP2">    -1</i>
   <i name="SCISSOR">      0.00000000</i>
   <i type="int" name="NOMEGA">     0</i>
   <i type="int" name="NOMEGAR">     0</i>
   <i type="int" name="NBANDSGW">    -1</i>
   <i type="int" name="NBANDSO">    -1</i>
   <i type="int" name="NBANDSV">    -1</i>
   <i type="int" name="NELM">   150</i>
   <i type="int" name="NELMHF">     1</i>
   <i type="int" name="DIM">     3</i>
   <i type="int" name="ANTIRES">     0</i>
   <i name="OMEGAMAX">    -30.00000000</i>
   <i name="OMEGAMIN">    -30.00000000</i>
   <i name="OMEGATL">   -200.00000000</i>
   <i type="int" name="OMEGAGRID">   140</i>
   <i name="CSHIFT">     -0.10000000</i>
   <i type="logical" name="SELFENERGY"> F  </i>
   <i type="logical" name="LSPECTRAL"> F  </i>
   <i type="logical" name="LSPECTRALGW"> F  </i>
   <i type="logical" name="LSINGLES"> F  </i>
   <i type="logical" name="LFERMIGW"> F  </i>
   <i type="logical" name="ODDONLYGW"> F  </i>
   <i type="logical" name="EVENONLYGW"> F  </i>
   <i type="int" name="NKREDLFX">     1</i>
   <i type="int" name="NKREDLFY">     1</i>
   <i type="int" name="NKREDLFZ">     1</i>
   <i type="int" name="MAXMEM">  2800</i>
   <i type="int" name="TELESCOPE">     0</i>
   <i type="int" name="TAUPAR">     1</i>
   <i type="int" name="OMEGAPAR">    -1</i>
   <i name="LAMBDA">      1.00000000</i>
  </separator>
  <separator name="External order field" >
   <i name="OFIELD_KAPPA">      0.00000000</i>
   <v name="OFIELD_K">      0.00000000      0.00000000      0.00000000</v>
   <i name="OFIELD_Q6_NEAR">      0.00000000</i>
   <i name="OFIELD_Q6_FAR">      0.00000000</i>
   <i name="OFIELD_A">      0.00000000</i>
  </separator>
 </parameters>
 <atominfo>
  <atoms>      64 </atoms>
  <types>       1 </types>
  <array name="atoms" >
   <dimension dim="1">ion</dimension>
   <field type="string">element</field>
   <field type="int">atomtype</field>
   <set>
    <rc><c>Si</c><c>   1</c></rc>
    <rc><c>Si</c><c>   1</c></rc>
    <rc><c>Si</c><c>   1</c></rc>
    <rc><c>Si</c><c>   1</c></rc>
    <rc><c>Si</c><c>   1</c></rc>
    <rc><c>Si</c><c>   1</c></rc>
    <rc><c>Si</c><c>   1</c></rc>
    <rc><c>Si</c><c>   1</c></rc>
    <rc><c>Si</c><c>   1</c></rc>
    <rc><c>Si</c><c>   1</c></rc>
    <rc><c>Si</c><c>   1</c></rc>
    <rc><c>Si</c><c>   1</c></rc>
    <rc><c>Si</c><c>   1</c></rc>
    <rc><c>Si</c><c>   1</c></rc>
    <rc><c>Si</c><c>   1</c></rc>
    <rc><c>Si</c><c>   1</c></rc>
    <rc><c>Si</c><c>   1</c></rc>
    <rc><c>Si</c><c>   1</c></rc>
    <rc><c>Si</c><c>   1</c></rc>
    <rc><c>Si</c><c>   1</c></rc>
    <rc><c>Si</c><c>   1</c></rc>
    <rc><c>Si</c><c>   1</c></rc>
    <rc><c>Si</c><c>   1</c></rc>
    <rc><c>Si</c><c>   1</c></rc>
    <rc><c>Si</c><c>   1</c></rc>
    <rc><c>Si</c><c>   1</c></rc>
    <rc><c>Si</c><c>   1</c></rc>
    <rc><c>Si</c><c>   1</c></rc>
    <rc><c>Si</c><c>   1</c></rc>
    <rc><c>Si</c><c>   1</c></rc>
    <rc><c>Si</c><c>   1</c></rc>
    <rc><c>Si</c><c>   1</c></rc>
    <rc><c>Si</c><c>   1</c></rc>
    <rc><c>Si</c><c>   1</c></rc>
    <rc><c>Si</c><c>   1</c></rc>
    <rc><c>Si</c><c>   1</c></rc>
    <rc><c>Si</c><c>   1</c></rc>
    <rc><c>Si</c><c>   1</c></rc>
    <rc><c>Si</c><c>   1</c></rc>
    <rc><c>Si</c><c>   1</c></rc>
    <rc><c>Si</c><c>   1</c></rc>
    <rc><c>Si</c><c>   1</c></rc>
    <rc><c>Si</c><c>   1</c></rc>
    <rc><c>Si</c><c>   1</c></rc>
    <rc><c>Si</c><c>   1</c></rc>
    <rc><c>Si</c><c>   1</c></rc>
    <rc><c>Si</c><c>   1</c></rc>
    <rc><c>Si</c><c>   1</c></rc>
    <rc><c>Si</c><c>   1</c></rc>
    <rc><c>Si</c><c>   1</c></rc>
    <rc><c>Si</c><c>   1</c></rc>
    <rc><c>Si</c><c>   1</c></rc>
    <rc><c>Si</c><c>   1</c></rc>
    <rc><c>Si</c><c>   1</c></rc>
    <rc><c>Si</c><c>   1</c></rc>
    <rc><c>Si</c><c>   1</c></rc>
    <rc><c>Si</c><c>   1</c></rc>
    <rc><c>Si</c><c>   1</c></rc>
    <rc><c>Si</c><c>   1</c></rc>
    <rc><c>Si</c><c>   1</c></rc>
    <rc><c>Si</c><c>   1</c></rc>
    <rc><c>Si</c><c>   1</c></rc>
    <rc><c>Si</c><c>   1</c></rc>
    <rc><c>Si</c><c>   1</c></rc>
   </set>
  </array>
  <array name="atomtypes" >
   <dimension dim="1">type</dimension>
   <field type="int">atomspertype</field>
   <field type="string">element</field>
   <field>mass</field>
   <field>valence</field>
   <field type="string">pseudopotential</field>
   <set>
    <rc><c>  64</c><c>Si</c><c>     28.08500000</c><c>      4.00000000</c><c>  PAW_PBE Si 05Jan2001                  </c></rc>
   </set>
  </array>
 </atominfo>
 <structure name="initialpos" >
  <crystal>
   <varray name="basis" >
    <v>      10.86180000       0.00000000       0.00000000 </v>
    <v>       0.00000000      10.86180000       0.00000000 </v>
    <v>       0.00000000       0.00000000      10.86180000 </v>
   </varray>
   <i name="volume">   1281.46103541 </i>
   <varray name="rec_basis" >
    <v>       0.09206577       0.00000000       0.00000000 </v>
    <v>       0.00000000       0.09206577       0.00000000 </v>
    <v>       0.00000000       0.00000000       0.09206577 </v>
   </varray>
  </crystal>
  <varray name="positions" >
   <v>       0.00000000       0.00000000       0.00000000 </v>
   <v>       0.50000000       0.00000000       0.00000000 </v>
   <v>       0.00000000       0.50000000       0.00000000 </v>
   <v>       0.50000000       0.50000000       0.00000000 </v>
   <v>       0.00000000       0.00000000       0.50000000 </v>
   <v>       0.50000000       0.00000000       0.50000000 </v>
   <v>       0.00000000       0.50000000       0.50000000 </v>
   <v>       0.50000000       0.50000000       0.50000000 </v>
   <v>       0.37500000       0.12500000       0.37500000 </v>
   <v>       0.87500000       0.12500000       0.37500000 </v>
   <v>       0.37500000       0.62500000       0.37500000 </v>
   <v>       0.87500000       0.62500000       0.37500000 </v>
   <v>       0.37500000       0.12500000       0.87500000 </v>
   <v>       0.87500000       0.12500000       0.87500000 </v>
   <v>       0.37500000       0.62500000       0.87500000 </v>
   <v>       0.87500000       0.62500000       0.87500000 </v>
   <v>       0.00000000       0.25000000       0.25000000 </v>
   <v>       0.50000000       0.25000000       0.25000000 </v>
   <v>       0.00000000       0.75000000       0.25000000 </v>
   <v>       0.50000000       0.75000000       0.25000000 </v>
   <v>       0.00000000       0.25000000       0.75000000 </v>
   <v>       0.50000000       0.25000000       0.75000000 </v>
   <v>       0.00000000       0.75000000       0.75000000 </v>
   <v>       0.50000000       0.75000000       0.75000000 </v>
   <v>       0.37500000       0.37500000       0.12500000 </v>
   <v>       0.87500000       0.37500000       0.12500000 </v>
   <v>       0.37500000       0.87500000       0.12500000 </v>
   <v>       0.87500000       0.87500000       0.12500000 </v>
   <v>       0.37500000       0.37500000       0.62500000 </v>
   <v>       0.87500000       0.37500000       0.62500000 </v>
   <v>       0.37500000       0.87500000       0.62500000 </v>
   <v>       0.87500000       0.87500000       0.62500000 </v>
   <v>       0.25000000       0.00000000       0.25000000 </v>
   <v>       0.75000000       0.00000000       0.25000000 </v>
   <v>       0.25000000       0.50000000       0.25000000 </v>
   <v>       0.75000000       0.50000000       0.25000000 </v>
   <v>       0.25000000       0.00000000       0.75000000 </v>
   <v>       0.75000000       0.00000000       0.75000000 </v>
   <v>       0.25000000       0.50000000       0.75000000 </v>
   <v>       0.75000000       0.50000000       0.75000000 </v>
   <v>       0.12500000       0.12500000       0.12500000 </v>
   <v>       0.62500000       0.12500000       0.12500000 </v>
   <v>       0.12500000       0.62500000       0.12500000 </v>
   <v>       0.62500000       0.62500000       0.12500000 </v>
   <v>       0.12500000       0.12500000       0.62500000 </v>
   <v>       0.62500000       0.12500000       0.62500000 </v>
   <v>       0.12500000       0.62500000       0.62500000 </v>
   <v>       0.62500000       0.62500000       0.62500000 </v>
   <v>       0.25000000       0.25000000       0.00000000 </v>
   <v>       0.75000000       0.25000000       0.00000000 </v>
   <v>       0.25000000       0.75000000       0.00000000 </v>
   <v>       0.75000000       0.75000000       0.00000000 </v>
   <v>       0.25000000       0.25000000       0.50000000 </v>
   <v>       0.75000000       0.25000000       0.50000000 </v>
   <v>       0.25000000       0.75000000       0.50000000 </v>
   <v>       0.75000000       0.75000000       0.50000000 </v>
   <v>       0.12500000       0.37500000       0.37500000 </v>
   <v>       0.62500000       0.37500000       0.37500000 </v>
   <v>       0.12500000       0.87500000       0.37500000 </v>
   <v>       0.62500000       0.87500000       0.37500000 </v>
   <v>       0.12500000       0.37500000       0.87500000 </v>
   <v>       0.62500000       0.37500000       0.87500000 </v>
   <v>       0.12500000       0.87500000       0.87500000 </v>
   <v>       0.62500000       0.87500000       0.87500000 </v>
  </varray>
  <varray name="velocities" >
   <v>       0.00084080      -0.00073778       0.00074588 </v>
   <v>       0.00092219      -0.00038772       0.00134427 </v>
   <v>      -0.00045145      -0.00046815      -0.00057086 </v>
   <v>      -0.00087314      -0.00080976       0.00169334 </v>
   <v>      -0.00010553      -0.00085892       0.00108711 </v>
   <v>      -0.00298944       0.00017279      -0.00134693 </v>
   <v>       0.00144023       0.00075515       0.00018155 </v>
   <v>       0.00047576      -0.00111820      -0.00192437 </v>
   <v>       0.00007436       0.00127138       0.00119824 </v>
   <v>       0.00190180       0.00085353       0.00082299 </v>
   <v>       0.00105004      -0.00019051      -0.00125773 </v>
   <v>      -0.00241712       0.00045428      -0.00007675 </v>
   <v>      -0.00056624       0.00075440       0.00122154 </v>
   <v>      -0.00019187      -0.00094739      -0.00074509 </v>
   <v>      -0.00022766       0.00030023      -0.00049534 </v>
   <v>      -0.00057231      -0.00086805      -0.00065103 </v>
   <v>       0.00078880       0.00105352      -0.00012611 </v>
   <v>       0.00280766      -0.00186543       0.00105167 </v>
   <v>      -0.00038028       0.00107710       0.00085064 </v>
   <v>       0.00214786      -0.00054417       0.00037404 </v>
   <v>       0.00032067      -0.00051626       0.00156065 </v>
   <v>       0.00111037       0.00153742      -0.00008874 </v>
   <v>       0.00012819      -0.00195748      -0.00024698 </v>
   <v>      -0.00090619       0.00097798       0.00247285 </v>
   <v>      -0.00061540      -0.00091402       0.00004182 </v>
   <v>      -0.00082222      -0.00063630      -0.00086255 </v>
   <v>       0.00213261       0.00020655       0.00100434 </v>
   <v>      -0.00219076      -0.00178383      -0.00044973 </v>
   <v>      -0.00003911       0.00063410       0.00023542 </v>
   <v>      -0.00063022       0.00164972      -0.00078022 </v>
   <v>       0.00072554      -0.00131120       0.00192781 </v>
   <v>      -0.00104882      -0.00145423      -0.00180754 </v>
   <v>      -0.00045402       0.00053278      -0.00048531 </v>
   <v>      -0.00030850       0.00051225       0.00040951 </v>
   <v>      -0.00104692       0.00055842      -0.00058616 </v>
   <v>       0.00106087       0.00052091      -0.00211170 </v>
   <v>      -0.00065712      -0.00108645      -0.00375511 </v>
   <v>       0.00019677       0.00022690      -0.00119185 </v>
   <v>      -0.00056215      -0.00149287       0.00133736 </v>
   <v>       0.00013860       0.00018312       0.00008846 </v>
   <v>      -0.00091203       0.00031540      -0.00076607 </v>
   <v>      -0.00051095       0.00044524      -0.00018967 </v>
   <v>      -0.00088514      -0.00022505      -0.00097403 </v>
   <v>       0.00093162       0.00153283       0.00045673 </v>
   <v>       0.00059848      -0.00050149      -0.00040065 </v>
   <v>      -0.00046332       0.00060137       0.00154071 </v>
   <v>      -0.00049361       0.00313391      -0.00059771 </v>
   <v>       0.00021330      -0.00108758       0.00079725 </v>
   <v>       0.00260739      -0.00133709       0.00126208 </v>
   <v>       0.00115504      -0.00035287       0.00017322 </v>
   <v>      -0.00191569       0.00047588      -0.00009930 </v>
   <v>      -0.00008716      -0.00207367      -0.00000129 </v>
   <v>       0.00065518      -0.00006851      -0.00204709 </v>
   <v>       0.00213641       0.00035178      -0.00243023 </v>
   <v>      -0.00127802       0.00047218       0.00223336 </v>
   <v>       0.00053954      -0.00025696      -0.00052404 </v>
   <v>       0.00108391       0.00124615       0.00217679 </v>
   <v>       0.00108654       0.00217413      -0.00047445 </v>
   <v>       0.00007866      -0.00077298      -0.00158967 </v>
   <v>      -0.00067121      -0.00015110       0.00252627 </v>
   <v>      -0.00148094      -0.00047683      -0.00053761 </v>
   <v>      -0.00027905       0.00109937      -0.00012815 </v>
   <v>      -0.00174304       0.00003658       0.00065940 </v>
   <v>      -0.00057251       0.00113547      -0.00115527 </v>
  </varray>
 </structure>
 <calculation>
  <scstep>
   <time name="diag">    0.21    0.21</time>
   <time name="diis">    0.31    0.31</time>
   <time name="orth">    0.04    0.04</time>
   <time name="total">    0.59    0.59</time>
   <energy>
    <i name="alphaZ">    107.59920118 </i>
    <i name="ewald">  -7312.82194087 </i>
    <i name="hartreedc">   -352.27344873 </i>
    <i name="XCdc">   -558.49301082 </i>
    <i name="pawpsdc">   5598.62625415 </i>
    <i name="pawaedc">  -4492.17844134 </i>
    <i name="eentropy">     -0.11006357 </i>
    <i name="bandstr">   1553.07315691 </i>
    <i name="atom">   6564.54007760 </i>
    <i name="e_fr_energy">   1107.96178451 </i>
    <i name="e_wo_entrp">   1108.07184808 </i>
    <i name="e_0_energy">   1108.01681629 </i>
   </energy>
  </scstep>
  <scstep>
   <time name="diag">    0.17    0.17</time>
   <time name="diis">    0.25    0.25</time>
   <time name="orth">    0.04    0.04</time>
   <time name="total">    0.46    0.46</time>
   <energy>
    <i name="e_fr_energy">     50.52653052 </i>
    <i name="e_wo_entrp">     50.66621382 </i>
    <i name="e_0_energy">     50.59637217 </i>
   </energy>
  </scstep>
  <scstep>
   <time name="diag">    0.17    0.17</time>
   <time name="diis">    0.24    0.24</time>
   <time name="orth">    0.04    0.04</time>
   <time name="total">    0.46    0.46</time>
   <energy>
    <i name="e_fr_energy">   -206.16245723 </i>
    <i name="e_wo_entrp">   -206.08407021 </i>
    <i name="e_0_energy">   -206.12326372 </i>
   </energy>
  </scstep>
  <scstep>
   <time name="diag">    0.17    0.17</time>
   <time name="diis">    0.25    0.25</time>
   <time name="orth">    0.04    0.04</time>
   <time name="total">    0.46    0.46</time>
   <energy>
    <i name="e_fr_energy">   -293.64375401 </i>
    <i name="e_wo_entrp">   -293.59161289 </i>
    <i name="e_0_energy">   -293.61768345 </i>
   </energy>
  </scstep>
  <scstep>
   <time name="diag">    0.17    0.17</time>
   <time name="diis">    0.25    0.25</time>
   <time name="orth">    0.04    0.04</time>
   <time name="total">    0.46    0.46</time>
   <energy>
    <i name="e_fr_energy">   -331.90263974 </i>
    <i name="e_wo_entrp">   -331.77163351 </i>
    <i name="e_0_energy">   -331.83713663 </i>
   </energy>
  </scstep>
  <scstep>
   <time name="diag">    0.17    0.17</time>
   <time name="diis">    0.24    0.24</time>
   <time name="orth">    0.04    0.04</time>
   <time name="total">    0.45    0.45</time>
   <energy>
    <i name="e_fr_energy">   -350.69925573 </i>
    <i name="e_wo_entrp">   -350.60640364 </i>
    <i name="e_0_energy">   -350.65282968 </i>
   </energy>
  </scstep>
  <scstep>
   <time name="diag">    0.17    0.17</time>
   <time name="diis">    0.24    0.24</time>
   <time name="orth">    0.04    0.04</time>
   <time name="total">    0.45    0.46</time>
   <energy>
    <i name="e_fr_energy">   -359.53693443 </i>
    <i name="e_wo_entrp">   -359.53619265 </i>
    <i name="e_0_energy">   -359.53656354 </i>
   </energy>
  </scstep>
  <scstep>
   <time name="diag">    0.17    0.17</time>
   <time name="diis">    0.24    0.24</time>
   <time name="orth">    0.04    0.04</time>
   <time name="total">    0.45    0.45</time>
   <energy>
    <i name="e_fr_energy">   -363.99650488 </i>
    <i name="e_wo_entrp">   -363.99650439 </i>
    <i name="e_0_energy">   -363.99650463 </i>
   </energy>
  </scstep>
  <scstep>
   <time name="diag">    0.17    0.17</time>
   <time name="diis">    0.46    0.46</time>
   <time name="orth">    0.04    0.04</time>
   <time name="total">    0.67    0.67</time>
   <energy>
    <i name="e_fr_energy">   -367.78777096 </i>
    <i name="e_wo_entrp">   -367.78777096 </i>
    <i name="e_0_energy">   -367.78777096 </i>
   </energy>
  </scstep>
  <scstep>
   <time name="diag">    0.17    0.17</time>
   <time name="diis">    0.47    0.47</time>
   <time name="orth">    0.04    0.04</time>
   <time name="total">    0.69    0.69</time>
   <energy>
    <i name="e_fr_energy">   -367.91749350 </i>
    <i name="e_wo_entrp">   -367.91749350 </i>
    <i name="e_0_energy">   -367.91749350 </i>
   </energy>
  </scstep>
  <scstep>
   <time name="diag">    0.17    0.17</time>
   <time name="diis">    0.46    0.46</time>
   <time name="orth">    0.04    0.04</time>
   <time name="total">    0.67    0.67</time>
   <energy>
    <i name="e_fr_energy">   -367.93102998 </i>
    <i name="e_wo_entrp">   -367.93102998 </i>
    <i name="e_0_energy">   -367.93102998 </i>
   </energy>
  </scstep>
  <scstep>
   <time name="diag">    0.17    0.17</time>
   <time name="diis">    0.47    0.47</time>
   <time name="orth">    0.04    0.04</time>
   <time name="total">    0.73    0.73</time>
   <energy>
    <i name="e_fr_energy">   -367.93137504 </i>
    <i name="e_wo_entrp">   -367.93137504 </i>
    <i name="e_0_energy">   -367.93137504 </i>
   </energy>
  </scstep>
  <scstep>
   <time name="diag">    0.16    0.16</time>
   <time name="diis">    0.44    0.44</time>
   <time name="orth">    0.04    0.04</time>
   <time name="total">    0.72    0.72</time>
   <energy>
    <i name="e_fr_energy">   -362.27776610 </i>
    <i name="e_wo_entrp">   -362.27776600 </i>
    <i name="e_0_energy">   -362.27776605 </i>
   </energy>
  </scstep>
  <scstep>
   <time name="diag">    0.16    0.16</time>
   <time name="diis">    0.43    0.43</time>
   <time name="orth">    0.04    0.04</time>
   <time name="total">    0.71    0.71</time>
   <energy>
    <i name="e_fr_energy">   -359.71202572 </i>
    <i name="e_wo_entrp">   -359.71151604 </i>
    <i name="e_0_energy">   -359.71177088 </i>
   </energy>
  </scstep>
  <scstep>
   <time name="diag">    0.17    0.17</time>
   <time name="diis">    0.44    0.44</time>
   <time name="orth">    0.04    0.04</time>
   <time name="total">    0.72    0.72</time>
   <energy>
    <i name="e_fr_energy">   -359.71236686 </i>
    <i name="e_wo_entrp">   -359.71216736 </i>
    <i name="e_0_energy">   -359.71226711 </i>
   </energy>
  </scstep>
  <scstep>
   <time name="diag">    0.17    0.17</time>
   <time name="diis">    0.42    0.42</time>
   <time name="orth">    0.04    0.04</time>
   <time name="total">    0.70    0.70</time>
   <energy>
    <i name="e_fr_energy">   -359.71568566 </i>
    <i name="e_wo_entrp">   -359.71551344 </i>
    <i name="e_0_energy">   -359.71559955 </i>
   </energy>
  </scstep>
  <scstep>
   <time name="diag">    0.17    0.17</time>
   <time name="diis">    0.44    0.44</time>
   <time name="orth">    0.04    0.04</time>
   <time name="total">    0.72    0.72</time>
   <energy>
    <i name="e_fr_energy">   -359.71629919 </i>
    <i name="e_wo_entrp">   -359.71612583 </i>
    <i name="e_0_energy">   -359.71621251 </i>
   </energy>
  </scstep>
  <scstep>
   <time name="diag">    0.16    0.16</time>
   <time name="diis">    0.42    0.42</time>
   <time name="orth">    0.04    0.04</time>
   <time name="total">    0.71    0.71</time>
   <energy>
    <i name="e_fr_energy">   -359.71629222 </i>
    <i name="e_wo_entrp">   -359.71612605 </i>
    <i name="e_0_energy">   -359.71620913 </i>
   </energy>
  </scstep>
  <scstep>
   <time name="diag">    0.17    0.17</time>
   <time name="diis">    0.42    0.43</time>
   <time name="orth">    0.06    0.06</time>
   <time name="total">    0.73    0.73</time>
   <energy>
    <i name="e_fr_energy">   -359.71628450 </i>
    <i name="e_wo_entrp">   -359.71611737 </i>
    <i name="e_0_energy">   -359.71620093 </i>
   </energy>
  </scstep>
  <scstep>
   <time name="diag">    0.16    0.16</time>
   <time name="diis">    0.28    0.28</time>
   <time name="orth">    0.04    0.04</time>
   <time name="total">    0.56    0.56</time>
   <energy>
    <i name="e_fr_energy">   -359.71628599 </i>
    <i name="e_wo_entrp">   -359.71611851 </i>
    <i name="e_0_energy">   -359.71620225 </i>
   </energy>
  </scstep>
  <scstep>
   <time name="diag">    0.17    0.17</time>
   <time name="diis">    0.28    0.28</time>
   <time name="orth">    0.04    0.04</time>
   <time name="total">    0.51    0.51</time>
   <energy>
    <i name="alphaZ">    107.59920118 </i>
    <i name="ewald">  -7312.82194087 </i>
    <i name="hartreedc">   -479.53906313 </i>
    <i name="XCdc">   -537.37591208 </i>
    <i name="pawpsdc">  33654.75746775 </i>
    <i name="pawaedc"> -32555.79002287 </i>
    <i name="eentropy">     -0.00016765 </i>
    <i name="bandstr">    198.91407446 </i>
    <i name="atom">   6564.54007760 </i>
    <i name="e_fr_energy">   -359.71628560 </i>
    <i name="e_wo_entrp">   -359.71611795 </i>
    <i name="e_0_energy">   -359.71620177 </i>
   </energy>
  </scstep>
  <structure>
   <crystal>
    <varray name="basis" >
     <v>      10.86180000       0.00000000       0.00000000 </v>
     <v>       0.00000000      10.86180000       0.00000000 </v>
     <v>       0.00000000       0.00000000      10.86180000 </v>
    </varray>
    <i name="volume">   1281.46103541 </i>
    <varray name="rec_basis" >
     <v>       0.09206577       0.00000000       0.00000000 </v>
     <v>       0.00000000       0.09206577       0.00000000 </v>
     <v>       0.00000000       0.00000000       0.09206577 </v>
    </varray>
   </crystal>
   <varray name="positions" >
    <v>       0.00000000       0.00000000       0.00000000 </v>
    <v>       0.50000000       0.00000000       0.00000000 </v>
    <v>       0.00000000       0.50000000       0.00000000 </v>
    <v>       0.50000000       0.50000000       0.00000000 </v>
    <v>       0.00000000       0.00000000       0.50000000 </v>
    <v>       0.50000000       0.00000000       0.50000000 </v>
    <v>       0.00000000       0.50000000       0.50000000 </v>
    <v>       0.50000000       0.50000000       0.50000000 </v>
    <v>       0.37500000       0.12500000       0.37500000 </v>
    <v>       0.87500000       0.12500000       0.37500000 </v>
    <v>       0.37500000       0.62500000       0.37500000 </v>
    <v>       0.87500000       0.62500000       0.37500000 </v>
    <v>       0.37500000       0.12500000       0.87500000 </v>
    <v>       0.87500000       0.12500000       0.87500000 </v>
    <v>       0.37500000       0.62500000       0.87500000 </v>
    <v>       0.87500000       0.62500000       0.87500000 </v>
    <v>       0.00000000       0.25000000       0.25000000 </v>
    <v>       0.50000000       0.25000000       0.25000000 </v>
    <v>       0.00000000       0.75000000       0.25000000 </v>
    <v>       0.50000000       0.75000000       0.25000000 </v>
    <v>       0.00000000       0.25000000       0.75000000 </v>
    <v>       0.50000000       0.25000000       0.75000000 </v>
    <v>       0.00000000       0.75000000       0.75000000 </v>
    <v>       0.50000000       0.75000000       0.75000000 </v>
    <v>       0.37500000       0.37500000       0.12500000 </v>
    <v>       0.87500000       0.37500000       0.12500000 </v>
    <v>       0.37500000       0.87500000       0.12500000 </v>
    <v>       0.87500000       0.87500000       0.12500000 </v>
    <v>       0.37500000       0.37500000       0.62500000 </v>
    <v>       0.87500000       0.37500000       0.62500000 </v>
    <v>       0.37500000       0.87500000       0.62500000 </v>
    <v>       0.87500000       0.87500000       0.62500000 </v>
    <v>       0.25000000       0.00000000       0.25000000 </v>
    <v>       0.75000000       0.00000000       0.25000000 </v>
    <v>       0.25000000       0.50000000       0.25000000 </v>
    <v>       0.75000000       0.50000000       0.25000000 </v>
    <v>       0.25000000       0.00000000       0.75000000 </v>
    <v>       0.75000000       0.00000000       0.75000000 </v>
    <v>       0.25000000       0.50000000       0.75000000 </v>
    <v>       0.75000000       0.50000000       0.75000000 </v>
    <v>       0.12500000       0.12500000       0.12500000 </v>
    <v>       0.62500000       0.12500000       0.12500000 </v>
    <v>       0.12500000       0.62500000       0.12500000 </v>
    <v>       0.62500000       0.62500000       0.12500000 </v>
    <v>       0.12500000       0.12500000       0.62500000 </v>
    <v>       0.62500000       0.12500000       0.62500000 </v>
    <v>       0.12500000       0.62500000       0.62500000 </v>
    <v>       0.62500000       0.62500000       0.62500000 </v>
    <v>       0.25000000       0.25000000       0.00000000 </v>
    <v>       0.75000000       0.25000000       0.00000000 </v>
    <v>       0.25000000       0.75000000       0.00000000 </v>
    <v>       0.75000000       0.75000000       0.00000000 </v>
    <v>       0.25000000       0.25000000       0.50000000 </v>
    <v>       0.75000000       0.25000000       0.50000000 </v>
    <v>       0.25000000       0.75000000       0.50000000 </v>
    <v>       0.75000000       0.75000000       0.50000000 </v>
    <v>       0.12500000       0.37500000       0.37500000 </v>
    <v>       0.62500000       0.37500000       0.37500000 </v>
    <v>       0.12500000       0.87500000       0.37500000 </v>
    <v>       0.62500000       0.87500000       0.37500000 </v>
    <v>       0.12500000       0.37500000       0.87500000 </v>
    <v>       0.62500000       0.37500000       0.87500000 </v>
    <v>       0.12500000       0.87500000       0.87500000 </v>
    <v>       0.62500000       0.87500000       0.87500000 </v>
   </varray>
  </structure>
  <varray name="forces" >
   <v>       0.00000487      -0.00000656      -0.00000204 </v>
   <v>      -0.00000562      -0.00000226      -0.00000229 </v>
   <v>      -0.00000799       0.00001165       0.00000759 </v>
   <v>      -0.00000371      -0.00000196      -0.00000615 </v>
   <v>       0.00000424       0.00000240      -0.00000564 </v>
   <v>      -0.00000647       0.00000406       0.00000194 </v>
   <v>      -0.00000390       0.00000122      -0.00000362 </v>
   <v>       0.00000172      -0.00000706       0.00000026 </v>
   <v>       0.04518196      -0.04519924       0.04519648 </v>
   <v>       0.04518640      -0.04519560       0.04519803 </v>
   <v>       0.04518684      -0.04520284       0.04519916 </v>
   <v>       0.04518436      -0.04519660       0.04519101 </v>
   <v>       0.04518580      -0.04519838       0.04519763 </v>
   <v>       0.04518469      -0.04520292       0.04519860 </v>
   <v>       0.04518380      -0.04519816       0.04518839 </v>
   <v>       0.04518607      -0.04519396       0.04520474 </v>
   <v>      -0.00000551      -0.00000216       0.00000335 </v>
   <v>       0.00000041      -0.00000087       0.00000927 </v>
   <v>       0.00000683       0.00000004      -0.00000404 </v>
   <v>      -0.00000202       0.00000304      -0.00000011 </v>
   <v>      -0.00001069      -0.00000444      -0.00000890 </v>
   <v>       0.00000031       0.00000288      -0.00000356 </v>
   <v>       0.00000945       0.00000600       0.00001024 </v>
   <v>      -0.00000384      -0.00000061       0.00000638 </v>
   <v>       0.04518766       0.04519034      -0.04519300 </v>
   <v>       0.04518084       0.04520187      -0.04519494 </v>
   <v>       0.04517965       0.04520540      -0.04520010 </v>
   <v>       0.04519162       0.04519313      -0.04519748 </v>
   <v>       0.04519021       0.04519623      -0.04520066 </v>
   <v>       0.04517655       0.04519937      -0.04520384 </v>
   <v>       0.04518127       0.04519762      -0.04518997 </v>
   <v>       0.04518888       0.04519556      -0.04519553 </v>
   <v>      -0.00000323      -0.00000033      -0.00000093 </v>
   <v>       0.00000069       0.00000208       0.00000647 </v>
   <v>       0.00000117      -0.00000185      -0.00000134 </v>
   <v>       0.00000304      -0.00000591      -0.00000247 </v>
   <v>      -0.00000516      -0.00000386       0.00000686 </v>
   <v>      -0.00000309      -0.00000175       0.00000388 </v>
   <v>       0.00000628       0.00000823      -0.00000286 </v>
   <v>       0.00000097       0.00000187       0.00000023 </v>
   <v>      -0.04518484      -0.04520903      -0.04519526 </v>
   <v>      -0.04518622      -0.04519582      -0.04519256 </v>
   <v>      -0.04518924      -0.04519256      -0.04519664 </v>
   <v>      -0.04518000      -0.04519736      -0.04520268 </v>
   <v>      -0.04518845      -0.04520408      -0.04520166 </v>
   <v>      -0.04518855      -0.04519126      -0.04519719 </v>
   <v>      -0.04518513      -0.04519140      -0.04519303 </v>
   <v>      -0.04518672      -0.04519778      -0.04519714 </v>
   <v>       0.00000650      -0.00000863       0.00000564 </v>
   <v>       0.00000032       0.00000742       0.00000200 </v>
   <v>      -0.00000765       0.00000720      -0.00000911 </v>
   <v>       0.00000248      -0.00000447      -0.00000211 </v>
   <v>       0.00000117      -0.00000643      -0.00000474 </v>
   <v>      -0.00000258       0.00000584      -0.00000209 </v>
   <v>      -0.00000196       0.00000371       0.00000524 </v>
   <v>      -0.00000177      -0.00000253      -0.00000122 </v>
   <v>      -0.04518672       0.04519142       0.04519336 </v>
   <v>      -0.04518682       0.04519265       0.04519902 </v>
   <v>      -0.04518374       0.04520183       0.04519604 </v>
   <v>      -0.04518635       0.04519833       0.04519903 </v>
   <v>      -0.04518422       0.04519857       0.04519638 </v>
   <v>      -0.04518498       0.04519930       0.04519322 </v>
   <v>      -0.04519000       0.04519910       0.04519652 </v>
   <v>      -0.04518766       0.04518875       0.04519674 </v>
  </varray>
  <varray name="stress" >
   <v>      10.25029750      -0.00001450      -0.00002370 </v>
   <v>      -0.00001440      10.25036449      -0.00000611 </v>
   <v>      -0.00002385      -0.00000579      10.25031398 </v>
  </varray>
  <energy>
   <i name="e_fr_energy">   -359.71628560 </i>
   <i name="e_wo_entrp">   -359.71620177 </i>
   <i name="e_0_energy">     -0.00016765 </i>
   <i name="kinetic">      4.88605769 </i>
   <i name="lattice kinetic">      0.00000000 </i>
   <i name="nosepot">      0.00000000 </i>
   <i name="nosekinetic">      0.00000000 </i>
   <i name="total">   -354.83022791 </i>
  </energy>
  <time name="totalsc">   13.90   13.91</time>
 </calculation>
 <calculation>
  <scstep>
   <time name="diag">    0.17    0.17</time>
   <time name="diis">    0.43    0.43</time>
   <time name="orth">    0.06    0.06</time>
   <time name="total">    0.75    0.75</time>
   <energy>
    <i name="alphaZ">    107.59920118 </i>
    <i name="ewald">  -7312.14392622 </i>
    <i name="hartreedc">   -479.85454172 </i>
    <i name="XCdc">   -537.38694458 </i>
    <i name="pawpsdc">  33655.62005550 </i>
    <i name="pawaedc"> -32556.65254386 </i>
    <i name="eentropy">     -0.00029098 </i>
    <i name="bandstr">    198.76504622 </i>
    <i name="atom">   6564.54007760 </i>
    <i name="e_fr_energy">   -359.51386685 </i>
    <i name="e_wo_entrp">   -359.51357587 </i>
    <i name="e_0_energy">   -359.51372136 </i>
   </energy>
  </scstep>
  <scstep>
   <time name="diag">    0.20    0.20</time>
   <time name="diis">    0.55    0.55</time>
   <time name="orth">    0.05    0.05</time>
   <time name="total">    0.90    0.90</time>
   <energy>
    <i name="e_fr_energy">   -359.52763963 </i>
    <i name="e_wo_entrp">   -359.52734986 </i>
    <i name="e_0_energy">   -359.52749475 </i>
   </energy>
  </scstep>
  <scstep>
   <time name="diag">    0.16    0.16</time>
   <time name="diis">    0.45    0.45</time>
   <time name="orth">    0.04    0.04</time>
   <time name="total">    0.72    0.73</time>
   <energy>
    <i name="e_fr_energy">   -359.52277135 </i>
    <i name="e_wo_entrp">   -359.52248811 </i>
    <i name="e_0_energy">   -359.52262973 </i>
   </energy>
  </scstep>
  <scstep>
   <time name="diag">    0.16    0.16</time>
   <time name="diis">    0.42    0.42</time>
   <time name="orth">    0.04    0.04</time>
   <time name="total">    0.70    0.70</time>
   <energy>
    <i name="e_fr_energy">   -359.52171286 </i>
    <i name="e_wo_entrp">   -359.52143669 </i>
    <i name="e_0_energy">   -359.52157477 </i>
   </energy>
  </scstep>
  <scstep>
   <time name="diag">    0.16    0.16</time>
   <time name="diis">    0.43    0.43</time>
   <time name="orth">    0.04    0.04</time>
   <time name="total">    0.72    0.72</time>
   <energy>
    <i name="e_fr_energy">   -359.52152000 </i>
    <i name="e_wo_entrp">   -359.52124260 </i>
    <i name="e_0_energy">   -359.52138130 </i>
   </energy>
  </scstep>
  <scstep>
   <time name="diag">    0.16    0.16</time>
   <time name="diis">    0.43    0.43</time>
   <time name="orth">    0.04    0.04</time>
   <time name="total">    0.71    0.71</time>
   <energy>
    <i name="e_fr_energy">   -359.52150760 </i>
    <i name="e_wo_entrp">   -359.52122970 </i>
    <i name="e_0_energy">   -359.52136865 </i>
   </energy>
  </scstep>
  <scstep>
   <time name="diag">    0.16    0.16</time>
   <time name="diis">    0.38    0.38</time>
   <time name="orth">    0.04    0.04</time>
   <time name="total">    0.66    0.66</time>
   <energy>
    <i name="e_fr_energy">   -359.52150709 </i>
    <i name="e_wo_entrp">   -359.52122934 </i>
    <i name="e_0_energy">   -359.52136821 </i>
   </energy>
  </scstep>
  <scstep>
   <time name="diag">    0.18    0.18</time>
   <time name="diis">    0.30    0.30</time>
   <time name="orth">    0.04    0.04</time>
   <time name="total">    0.55    0.55</time>
   <energy>
    <i name="alphaZ">    107.59920118 </i>
    <i name="ewald">  -7312.14392622 </i>
    <i name="hartreedc">   -479.87641230 </i>
    <i name="XCdc">   -537.38236843 </i>
    <i name="pawpsdc">  33673.25147092 </i>
    <i name="pawaedc"> -32574.29054000 </i>
    <i name="eentropy">     -0.00027784 </i>
    <i name="bandstr">    198.78126821 </i>
    <i name="atom">   6564.54007760 </i>
    <i name="e_fr_energy">   -359.52150687 </i>
    <i name="e_wo_entrp">   -359.52122904 </i>
    <i name="e_0_energy">   -359.52136796 </i>
   </energy>
  </scstep>
  <structure>
   <crystal>
    <varray name="basis" >
     <v>      10.86180000       0.00000000       0.00000000 </v>
     <v>       0.00000000      10.86180000       0.00000000 </v>
     <v>       0.00000000       0.00000000      10.86180000 </v>
    </varray>
    <i name="volume">   1281.46103541 </i>
    <varray name="rec_basis" >
     <v>       0.09206577       0.00000000       0.00000000 </v>
     <v>       0.00000000       0.09206577       0.00000000 </v>
     <v>       0.00000000       0.00000000       0.09206577 </v>
    </varray>
   </crystal>
   <varray name="positions" >
    <v>       0.00005674       0.99860090       0.00139881 </v>
    <v>       0.50013607       0.00053323       0.00082801 </v>
    <v>       0.00004120       0.49838835       0.00026170 </v>
    <v>       0.50014854       0.49957205       0.00112377 </v>
    <v>       0.00044671       0.99837123       0.50106861 </v>
    <v>       0.50144043       0.00220738       0.49885023 </v>
    <v>       0.00202409       0.49978325       0.49896214 </v>
    <v>       0.50064362       0.49945616       0.49967302 </v>
    <v>       0.37730524       0.12442951       0.37466807 </v>
    <v>       0.87552627       0.12654044       0.37548103 </v>
    <v>       0.37522305       0.62311662       0.37553743 </v>
    <v>       0.87658546       0.62418750       0.37481870 </v>
    <v>       0.37595310       0.12361570       0.87571811 </v>
    <v>       0.87435872       0.12502465       0.87638980 </v>
    <v>       0.37304040       0.62557972       0.87633203 </v>
    <v>       0.87448707       0.62524268       0.87335736 </v>
    <v>       0.00049582       0.24857843       0.24931319 </v>
    <v>       0.49872173       0.24905785       0.24995167 </v>
    <v>       0.00042798       0.75027550       0.24906491 </v>
    <v>       0.50198960       0.75041666       0.25184385 </v>
    <v>       0.00010999       0.24997609       0.74987574 </v>
    <v>       0.49785518       0.24947987       0.74882526 </v>
    <v>       0.99964169       0.74773344       0.74936033 </v>
    <v>       0.50067857       0.75135323       0.74910194 </v>
    <v>       0.37531605       0.37570651       0.12428856 </v>
    <v>       0.87502004       0.37595541       0.12319795 </v>
    <v>       0.37561269       0.87418554       0.12547011 </v>
    <v>       0.87500849       0.87440771       0.12663223 </v>
    <v>       0.37496461       0.37402075       0.62577541 </v>
    <v>       0.87340432       0.37421231       0.62420870 </v>
    <v>       0.37472165       0.87483757       0.62456068 </v>
    <v>       0.87312927       0.87519660       0.62441897 </v>
    <v>       0.24985726       0.99903045       0.24996298 </v>
    <v>       0.74923679       0.00120907       0.24943057 </v>
    <v>       0.24871657       0.50211873       0.25133051 </v>
    <v>       0.75074568       0.50037088       0.24880732 </v>
    <v>       0.24902221       0.99902929       0.75155135 </v>
    <v>       0.75024617       0.99996654       0.75102617 </v>
    <v>       0.25031145       0.49987759       0.74833810 </v>
    <v>       0.74986832       0.49925347       0.74883101 </v>
    <v>       0.12411285       0.12410579       0.12350389 </v>
    <v>       0.62512726       0.12612473       0.12663309 </v>
    <v>       0.12383128       0.62618534       0.12395574 </v>
    <v>       0.62486430       0.62674776       0.12351986 </v>
    <v>       0.12397088       0.12434725       0.62391381 </v>
    <v>       0.62597351       0.12308280       0.62660132 </v>
    <v>       0.12408354       0.62607755       0.62509393 </v>
    <v>       0.62469450       0.62384344       0.62586329 </v>
    <v>       0.24876005       0.24912029       0.99991581 </v>
    <v>       0.74928613       0.25038285       0.00142697 </v>
    <v>       0.24969779       0.75052098       0.00069936 </v>
    <v>       0.74957577       0.75110658       0.00146460 </v>
    <v>       0.25189238       0.25014433       0.50331075 </v>
    <v>       0.75120646       0.25311487       0.50026349 </v>
    <v>       0.24965545       0.75064401       0.50098385 </v>
    <v>       0.75200719       0.75039956       0.49818830 </v>
    <v>       0.12769474       0.37700154       0.37401988 </v>
    <v>       0.62479552       0.37505141       0.37483194 </v>
    <v>       0.12606230       0.87512454       0.37315588 </v>
    <v>       0.62600772       0.87484997       0.37329775 </v>
    <v>       0.12379985       0.37543829       0.87343416 </v>
    <v>       0.62461361       0.37544073       0.87481163 </v>
    <v>       0.12055176       0.87363534       0.87647937 </v>
    <v>       0.62521634       0.87661122       0.87499500 </v>
   </varray>
  </structure>
  <varray name="forces" >
   <v>      -0.32639421       0.11538005      -0.08814871 </v>
   <v>       0.11444031      -0.05438867       0.12298096 </v>
   <v>      -0.03802795       0.32583503      -0.28498723 </v>
   <v>      -0.04342484       0.21143618      -0.19722272 </v>
   <v>      -0.11614216       0.10056629      -0.34121383 </v>
   <v>      -0.00509359      -0.48563470       0.17160406 </v>
   <v>      -0.21773198      -0.08251385       0.20603654 </v>
   <v>      -0.06222554      -0.11046589       0.11978303 </v>
   <v>      -0.45289858       0.06875312       0.14238471 </v>
   <v>       0.00277840      -0.24732362       0.12985926 </v>
   <v>       0.06956121       0.38451361       0.14108977 </v>
   <v>       0.02907130       0.01922309      -0.04859873 </v>
   <v>      -0.21394210       0.10690034       0.01959115 </v>
   <v>       0.17277443      -0.04026345       0.02721562 </v>
   <v>       0.33511026      -0.10361065      -0.21183549 </v>
   <v>      -0.03727755      -0.18812544       0.35389989 </v>
   <v>       0.06289743       0.34105923       0.00457610 </v>
   <v>       0.13884134       0.28723176      -0.01098335 </v>
   <v>      -0.06580419      -0.08237822       0.21214897 </v>
   <v>      -0.28695408      -0.19908268      -0.15212129 </v>
   <v>      -0.22821452      -0.10318392      -0.06503313 </v>
   <v>       0.32031551      -0.10246902       0.23661159 </v>
   <v>      -0.25370020       0.27386894      -0.04820751 </v>
   <v>      -0.12039329      -0.16451658       0.23237711 </v>
   <v>      -0.27882333      -0.04845647       0.19801524 </v>
   <v>       0.09362944      -0.22250575       0.31471498 </v>
   <v>       0.07863381       0.06467179       0.04829951 </v>
   <v>      -0.06494449       0.19947790      -0.07559329 </v>
   <v>       0.17683804       0.28932529      -0.11698557 </v>
   <v>       0.53809599       0.31934783       0.09284445 </v>
   <v>       0.15370367       0.32826534      -0.03887077 </v>
   <v>       0.29348256      -0.10306816       0.17129594 </v>
   <v>       0.16648360       0.29785470      -0.11988570 </v>
   <v>       0.21431747       0.00989780       0.13186012 </v>
   <v>       0.22588926      -0.03473496      -0.45410548 </v>
   <v>      -0.13929805       0.07153533       0.04111423 </v>
   <v>      -0.12567075      -0.07849890      -0.02273949 </v>
   <v>       0.07363107       0.00633263      -0.03412026 </v>
   <v>      -0.10370574       0.11188155       0.17407048 </v>
   <v>      -0.01625615       0.04636348       0.17011111 </v>
   <v>       0.13000868      -0.08190404       0.20884301 </v>
   <v>      -0.14667692      -0.12797213      -0.21165363 </v>
   <v>       0.08776085      -0.22048876       0.04557317 </v>
   <v>      -0.02903332      -0.22112556       0.24248965 </v>
   <v>       0.15474198      -0.05205811       0.25258453 </v>
   <v>      -0.02712946       0.46374311      -0.28629008 </v>
   <v>       0.17862992      -0.22872913      -0.13371073 </v>
   <v>       0.09549906       0.24308405      -0.31762828 </v>
   <v>       0.14362255       0.17651889      -0.15476990 </v>
   <v>      -0.04167764       0.05325001      -0.18360693 </v>
   <v>      -0.11714751       0.03818357      -0.09457351 </v>
   <v>       0.11126467       0.02579183      -0.33801350 </v>
   <v>      -0.18860711      -0.11682927      -0.54102910 </v>
   <v>      -0.33961127      -0.48807312      -0.04015341 </v>
   <v>       0.08354839      -0.14891105      -0.27626624 </v>
   <v>      -0.28299123      -0.22102696       0.10126036 </v>
   <v>      -0.17087462      -0.54411398       0.25022678 </v>
   <v>       0.00015185       0.05305037      -0.12567695 </v>
   <v>      -0.18245910      -0.08746972       0.27716482 </v>
   <v>      -0.00347502       0.21968754       0.32214721 </v>
   <v>       0.21827801      -0.05214333       0.13370016 </v>
   <v>      -0.10092435      -0.13789820      -0.00781924 </v>
   <v>       0.44250593       0.03072729      -0.16095390 </v>
   <v>      -0.08266739      -0.13235534       0.14345284 </v>
  </varray>
  <varray name="stress" >
   <v>       9.95591129       1.35176570       0.35169534 </v>
   <v>       1.35176574      10.18044196       1.21332339 </v>
   <v>       0.35169506       1.21332319      10.10754951 </v>
  </varray>
  <energy>
   <i name="e_fr_energy">   -359.52150687 </i>
   <i name="e_wo_entrp">   -359.52136796 </i>
   <i name="e_0_energy">     -0.00027784 </i>
   <i name="kinetic">      4.70273814 </i>
   <i name="lattice kinetic">      0.00000000 </i>
   <i name="nosepot">      0.00001247 </i>
   <i name="nosekinetic">      0.00000000 </i>
   <i name="total">   -354.81875626 </i>
  </energy>
  <time name="totalsc">    6.88    6.89</time>
 </calculation>
 <calculation>
  <scstep>
   <time name="diag">    0.16    0.16</time>
   <time name="diis">    0.42    0.42</time>
   <time name="orth">    0.04    0.04</time>
   <time name="total">    0.70    0.70</time>
   <energy>
    <i name="alphaZ">    107.59920118 </i>
    <i name="ewald">  -7310.27814383 </i>
    <i name="hartreedc">   -480.99229524 </i>
    <i name="XCdc">   -537.38250387 </i>
    <i name="pawpsdc">  33695.48940795 </i>
    <i name="pawaedc"> -32596.53532423 </i>
    <i name="eentropy">     -0.00080004 </i>
    <i name="bandstr">    198.55177933 </i>
    <i name="atom">   6564.54007760 </i>
    <i name="e_fr_energy">   -359.00860115 </i>
    <i name="e_wo_entrp">   -359.00780111 </i>
    <i name="e_0_energy">   -359.00820113 </i>
   </energy>
  </scstep>
  <scstep>
   <time name="diag">    0.16    0.16</time>
   <time name="diis">    0.44    0.44</time>
   <time name="orth">    0.04    0.04</time>
   <time name="total">    0.72    0.72</time>
   <energy>
    <i name="e_fr_energy">   -359.00916443 </i>
    <i name="e_wo_entrp">   -359.00836919 </i>
    <i name="e_0_energy">   -359.00876681 </i>
   </energy>
  </scstep>
  <scstep>
   <time name="diag">    0.18    0.18</time>
   <time name="diis">    0.46    0.46</time>
   <time name="orth">    0.04    0.04</time>
   <time name="total">    0.75    0.75</time>
   <energy>
    <i name="e_fr_energy">   -359.00918855 </i>
    <i name="e_wo_entrp">   -359.00839568 </i>
    <i name="e_0_energy">   -359.00879211 </i>
   </energy>
  </scstep>
  <scstep>
   <time name="diag">    0.16    0.16</time>
   <time name="diis">    0.42    0.42</time>
   <time name="orth">    0.04    0.04</time>
   <time name="total">    0.70    0.70</time>
   <energy>
    <i name="e_fr_energy">   -359.00919002 </i>
    <i name="e_wo_entrp">   -359.00839885 </i>
    <i name="e_0_energy">   -359.00879443 </i>
   </energy>
  </scstep>
  <scstep>
   <time name="diag">    0.16    0.16</time>
   <time name="diis">    0.29    0.29</time>
   <time name="orth">    0.04    0.04</time>
   <time name="total">    0.57    0.57</time>
   <energy>
    <i name="e_fr_energy">   -359.00919192 </i>
    <i name="e_wo_entrp">   -359.00840133 </i>
    <i name="e_0_energy">   -359.00879663 </i>
   </energy>
  </scstep>
  <scstep>
   <time name="diag">    0.16    0.16</time>
   <time name="diis">    0.28    0.28</time>
   <time name="orth">    0.04    0.04</time>
   <time name="total">    0.51    0.51</time>
   <energy>
    <i name="alphaZ">    107.59920118 </i>
    <i name="ewald">  -7310.27814383 </i>
    <i name="hartreedc">   -480.81422787 </i>
    <i name="XCdc">   -537.39921883 </i>
    <i name="pawpsdc">  33691.86635701 </i>
    <i name="pawaedc"> -32592.92122435 </i>
    <i name="eentropy">     -0.00079070 </i>
    <i name="bandstr">    198.39877745 </i>
    <i name="atom">   6564.54007760 </i>
    <i name="e_fr_energy">   -359.00919234 </i>
    <i name="e_wo_entrp">   -359.00840164 </i>
    <i name="e_0_energy">   -359.00879699 </i>
   </energy>
  </scstep>
  <structure>
   <crystal>
    <varray name="basis" >
     <v>      10.86180000       0.00000000       0.00000000 </v>
     <v>       0.00000000      10.86180000       0.00000000 </v>
     <v>       0.00000000       0.00000000      10.86180000 </v>
    </varray>
    <i name="volume">   1281.46103541 </i>
    <varray name="rec_basis" >
     <v>       0.09206577       0.00000000       0.00000000 </v>
     <v>       0.00000000       0.09206577       0.00000000 </v>
     <v>       0.00000000       0.00000000       0.09206577 </v>
    </varray>
   </crystal>
   <varray name="positions" >
    <v>       0.00002059       0.99723478       0.00277138 </v>
    <v>       0.50030473       0.00105109       0.00168988 </v>
    <v>       0.00007159       0.49686959       0.00044114 </v>
    <v>       0.50028473       0.49920442       0.00219026 </v>
    <v>       0.00086037       0.99677122       0.50203895 </v>
    <v>       0.50287942       0.00427663       0.49774817 </v>
    <v>       0.00398621       0.49954314       0.49798179 </v>
    <v>       0.50126955       0.49888101       0.49937900 </v>
    <v>       0.37948156       0.12387873       0.37437553 </v>
    <v>       0.87605335       0.12801059       0.37599788 </v>
    <v>       0.37546592       0.62134282       0.37611387 </v>
    <v>       0.87817922       0.62338061       0.37462241 </v>
    <v>       0.37684531       0.12226197       0.87644066 </v>
    <v>       0.87376663       0.12503796       0.87778621 </v>
    <v>       0.37117620       0.62613006       0.87760262 </v>
    <v>       0.87396354       0.62543193       0.87181432 </v>
    <v>       0.00100956       0.24725407       0.24862653 </v>
    <v>       0.49748299       0.24819759       0.24989907 </v>
    <v>       0.00083724       0.75052768       0.24818906 </v>
    <v>       0.50389753       0.75077678       0.25364325 </v>
    <v>       0.00015502       0.24992293       0.74973182 </v>
    <v>       0.49580157       0.24893070       0.74771674 </v>
    <v>       0.99921118       0.74554496       0.74870579 </v>
    <v>       0.50132289       0.75265975       0.74826888 </v>
    <v>       0.37555275       0.37639936       0.12363234 </v>
    <v>       0.87506674       0.37684760       0.12148434 </v>
    <v>       0.37624779       0.87338961       0.12595282 </v>
    <v>       0.87499851       0.87387234       0.12824179 </v>
    <v>       0.37497957       0.37312398       0.62651637 </v>
    <v>       0.87196183       0.37351566       0.62344269 </v>
    <v>       0.37448707       0.87476872       0.62410915 </v>
    <v>       0.87134210       0.87536398       0.62388556 </v>
    <v>       0.24976194       0.99814583       0.24989069 </v>
    <v>       0.74853461       0.00242107       0.24889754 </v>
    <v>       0.24749746       0.50422769       0.25253061 </v>
    <v>       0.75145172       0.50076226       0.24762521 </v>
    <v>       0.24800866       0.99803636       0.75309508 </v>
    <v>       0.75051331       0.99993502       0.75204148 </v>
    <v>       0.25059339       0.49978715       0.74672461 </v>
    <v>       0.74973203       0.49852027       0.74770931 </v>
    <v>       0.12326272       0.12318839       0.12206608 </v>
    <v>       0.62521278       0.12721316       0.12820479 </v>
    <v>       0.12268756       0.62730804       0.12292331 </v>
    <v>       0.62472036       0.62843270       0.12210762 </v>
    <v>       0.12298584       0.12367981       0.62289837 </v>
    <v>       0.62693931       0.12129774       0.62812000 </v>
    <v>       0.12321794       0.62709011       0.62514866 </v>
    <v>       0.62441620       0.62275620       0.62663502 </v>
    <v>       0.24756100       0.24829095       0.99978641 </v>
    <v>       0.74856042       0.25078098       0.00280052 </v>
    <v>       0.24936225       0.75105296       0.00137065 </v>
    <v>       0.74918322       0.75222063       0.00283183 </v>
    <v>       0.25373108       0.25025553       0.50646633 </v>
    <v>       0.75231627       0.25609092       0.50051440 </v>
    <v>       0.24933471       0.75124577       0.50188792 </v>
    <v>       0.75393384       0.75073632       0.49640429 </v>
    <v>       0.13034084       0.37884832       0.37310986 </v>
    <v>       0.62459110       0.37511806       0.37462696 </v>
    <v>       0.12707268       0.87522430       0.37138952 </v>
    <v>       0.62701446       0.87476261       0.37168607 </v>
    <v>       0.12266185       0.37586186       0.87190523 </v>
    <v>       0.62419850       0.37584234       0.87461989 </v>
    <v>       0.11622950       0.87227955       0.87791178 </v>
    <v>       0.62540916       0.87818489       0.87502969 </v>
   </varray>
  </structure>
  <varray name="forces" >
   <v>      -0.62537205       0.22249720      -0.15339137 </v>
   <v>       0.20201385      -0.12807925       0.16111137 </v>
   <v>      -0.03907396       0.63367733      -0.54483768 </v>
   <v>      -0.07177619       0.40591297      -0.46501796 </v>
   <v>      -0.20743306       0.19307347      -0.61305195 </v>
   <v>       0.03939643      -0.94208723       0.33334115 </v>
   <v>      -0.38956047      -0.15002988       0.36616592 </v>
   <v>      -0.17117139      -0.16564209       0.26038214 </v>
   <v>      -0.88640536       0.14066569       0.21310636 </v>
   <v>      -0.04416642      -0.40532258       0.19580589 </v>
   <v>       0.09079437       0.71468893       0.24491646 </v>
   <v>       0.03378968       0.03007547      -0.15030358 </v>
   <v>      -0.47478824       0.23672119      -0.03425524 </v>
   <v>       0.29113110      -0.00225988       0.01499967 </v>
   <v>       0.57005277      -0.16992548      -0.41284484 </v>
   <v>      -0.11123205      -0.33995577       0.64362800 </v>
   <v>       0.10560809       0.61926069      -0.03733057 </v>
   <v>       0.21901778       0.52410509      -0.02317904 </v>
   <v>      -0.05269686      -0.15468757       0.28002941 </v>
   <v>      -0.59694219      -0.40508915      -0.39880662 </v>
   <v>      -0.43250846      -0.20190336      -0.12611875 </v>
   <v>       0.66339641      -0.21468365       0.48899261 </v>
   <v>      -0.45678094       0.60289555      -0.03293329 </v>
   <v>      -0.24273976      -0.30362444       0.38902285 </v>
   <v>      -0.52795360      -0.14576961       0.40656832 </v>
   <v>       0.09706632      -0.42832310       0.62403049 </v>
   <v>       0.08675725       0.11687558       0.10650312 </v>
   <v>      -0.18222465       0.37152339      -0.10043982 </v>
   <v>       0.28773565       0.54753195      -0.20379194 </v>
   <v>       0.98911744       0.59399814       0.29016086 </v>
   <v>       0.21219836       0.55319482      -0.02916927 </v>
   <v>       0.52057970      -0.16253304       0.32329092 </v>
   <v>       0.30085545       0.44113678      -0.26066359 </v>
   <v>       0.44006992       0.00711518       0.25336443 </v>
   <v>       0.48263002      -0.06040107      -0.91951649 </v>
   <v>      -0.19218653       0.14830405       0.01249492 </v>
   <v>      -0.22179282      -0.07594632      -0.06952953 </v>
   <v>       0.20397287       0.01271957       0.08407116 </v>
   <v>      -0.20407379       0.25010976       0.33089026 </v>
   <v>      -0.03319404       0.02684102       0.26693271 </v>
   <v>       0.32768194      -0.07649764       0.44697576 </v>
   <v>      -0.24473637      -0.12924749      -0.35261896 </v>
   <v>       0.18206762      -0.36799267       0.09764271 </v>
   <v>      -0.03706843      -0.40855306       0.54665805 </v>
   <v>       0.34040244      -0.02035788       0.51995113 </v>
   <v>      -0.03422719       0.88220922      -0.48072074 </v>
   <v>       0.38800366      -0.40203080      -0.30521606 </v>
   <v>       0.19219030       0.49618519      -0.52811998 </v>
   <v>       0.23090486       0.26165834      -0.30731773 </v>
   <v>      -0.07284729       0.06320673      -0.33789127 </v>
   <v>      -0.27628771       0.15159673      -0.08382525 </v>
   <v>       0.26728281       0.05376353      -0.69490785 </v>
   <v>      -0.39268337      -0.25070606      -1.07693306 </v>
   <v>      -0.67191260      -1.03983327      -0.17517356 </v>
   <v>       0.11668936      -0.17467996      -0.40342606 </v>
   <v>      -0.57042467      -0.40653554       0.22148255 </v>
   <v>      -0.38464264      -1.08253308       0.46193432 </v>
   <v>       0.04850093       0.05326963      -0.28039169 </v>
   <v>      -0.27920067      -0.21929502       0.52134635 </v>
   <v>       0.08935466       0.38949880       0.56433645 </v>
   <v>       0.46120082      -0.10987106       0.18170007 </v>
   <v>      -0.16908850      -0.27326665      -0.07445663 </v>
   <v>       0.93101957       0.00891517      -0.37856354 </v>
   <v>      -0.12206665      -0.30051550       0.23730671 </v>
  </varray>
  <varray name="stress" >
   <v>      11.27213905       2.91024424       0.12670361 </v>
   <v>       2.91024455      11.46950716       2.06027254 </v>
   <v>       0.12670369       2.06027244      11.36628826 </v>
  </varray>
  <energy>
   <i name="e_fr_energy">   -359.00919234 </i>
   <i name="e_wo_entrp">   -359.00879699 </i>
   <i name="e_0_energy">     -0.00079070 </i>
   <i name="kinetic">      4.19577303 </i>
   <i name="lattice kinetic">      0.00000000 </i>
   <i name="nosepot">     -0.00256930 </i>
   <i name="nosekinetic">      0.00019150 </i>
   <i name="total">   -354.81579711 </i>
  </energy>
  <time name="totalsc">    5.10    5.11</time>
 </calculation>
 <calculation>
  <scstep>
   <time name="diag">    0.17    0.17</time>
   <time name="diis">    0.42    0.42</time>
   <time name="orth">    0.04    0.04</time>
   <time name="total">    0.70    0.70</time>
   <energy>
    <i name="alphaZ">    107.59920118 </i>
    <i name="ewald">  -7307.67888951 </i>
    <i name="hartreedc">   -481.96498030 </i>
    <i name="XCdc">   -537.43803173 </i>
    <i name="pawpsdc">  33707.15027088 </i>
    <i name="pawaedc"> -32608.23740666 </i>
    <i name="eentropy">     -0.00219261 </i>
    <i name="bandstr">    197.75615618 </i>
    <i name="atom">   6564.54007760 </i>
    <i name="e_fr_energy">   -358.27579497 </i>
    <i name="e_wo_entrp">   -358.27360236 </i>
    <i name="e_0_energy">   -358.27469866 </i>
   </energy>
  </scstep>
  <scstep>
   <time name="diag">    0.17    0.17</time>
   <time name="diis">    0.43    0.43</time>
   <time name="orth">    0.04    0.04</time>
   <time name="total">    0.71    0.71</time>
   <energy>
    <i name="e_fr_energy">   -358.27775468 </i>
    <i name="e_wo_entrp">   -358.27555665 </i>
    <i name="e_0_energy">   -358.27665566 </i>
   </energy>
  </scstep>
  <scstep>
   <time name="diag">    0.16    0.16</time>
   <time name="diis">    0.46    0.46</time>
   <time name="orth">    0.04    0.04</time>
   <time name="total">    0.75    0.75</time>
   <energy>
    <i name="e_fr_energy">   -358.27788290 </i>
    <i name="e_wo_entrp">   -358.27567669 </i>
    <i name="e_0_energy">   -358.27677979 </i>
   </energy>
  </scstep>
  <scstep>
   <time name="diag">    0.16    0.16</time>
   <time name="diis">    0.43    0.43</time>
   <time name="orth">    0.04    0.04</time>
   <time name="total">    0.72    0.72</time>
   <energy>
    <i name="e_fr_energy">   -358.27788107 </i>
    <i name="e_wo_entrp">   -358.27566684 </i>
    <i name="e_0_energy">   -358.27677396 </i>
   </energy>
  </scstep>
  <scstep>
   <time name="diag">    0.16    0.16</time>
   <time name="diis">    0.30    0.30</time>
   <time name="orth">    0.04    0.04</time>
   <time name="total">    0.54    0.54</time>
   <energy>
    <i name="alphaZ">    107.59920118 </i>
    <i name="ewald">  -7307.67888951 </i>
    <i name="hartreedc">   -482.12955599 </i>
    <i name="XCdc">   -537.42575379 </i>
    <i name="pawpsdc">  33731.19571339 </i>
[...]
       <r>    -3.0480     0.0000    46.0000 </r>
       <r>    -2.9913     0.0000    46.0000 </r>
       <r>    -2.9347     0.0000    46.0000 </r>
       <r>    -2.8780     0.0000    46.0000 </r>
       <r>    -2.8214     0.0000    46.0000 </r>
       <r>    -2.7647     0.0000    46.0000 </r>
       <r>    -2.7081     0.0000    46.0000 </r>
       <r>    -2.6514     0.0000    46.0000 </r>
       <r>    -2.5947     0.0000    46.0000 </r>
       <r>    -2.5381     0.0000    46.0000 </r>
       <r>    -2.4814     0.0000    46.0000 </r>
       <r>    -2.4248     0.0012    46.0001 </r>
       <r>    -2.3681     0.0276    46.0016 </r>
       <r>    -2.3115     0.3625    46.0222 </r>
       <r>    -2.2548     2.6468    46.1721 </r>
       <r>    -2.1982    11.0562    46.7985 </r>
       <r>    -2.1415    27.7991    48.3733 </r>
       <r>    -2.0849    45.8657    50.9716 </r>
       <r>    -2.0282    56.5076    54.1728 </r>
       <r>    -1.9716    60.7508    57.6144 </r>
       <r>    -1.9149    64.6955    61.2794 </r>
       <r>    -1.8583    70.1975    65.2561 </r>
       <r>    -1.8016    75.1243    69.5120 </r>
       <r>    -1.7450    75.5056    73.7894 </r>
       <r>    -1.6883    65.3638    77.4923 </r>
       <r>    -1.6317    45.4895    80.0693 </r>
       <r>    -1.5750    23.7365    81.4140 </r>
       <r>    -1.5184     8.3317    81.8860 </r>
       <r>    -1.4617     1.7917    81.9875 </r>
       <r>    -1.4051     0.3963    82.0100 </r>
       <r>    -1.3484     1.5009    82.0950 </r>
       <r>    -1.2918     7.1564    82.5004 </r>
       <r>    -1.2351    20.4987    83.6617 </r>
       <r>    -1.1785    35.7737    85.6883 </r>
       <r>    -1.1218    38.4243    87.8650 </r>
       <r>    -1.0652    25.2063    89.2930 </r>
       <r>    -1.0085     9.8935    89.8534 </r>
       <r>    -0.9519     2.2674    89.9819 </r>
       <r>    -0.8952     0.2968    89.9987 </r>
       <r>    -0.8386     0.0218    89.9999 </r>
       <r>    -0.7819     0.0009    90.0000 </r>
       <r>    -0.7253     0.0000    90.0000 </r>
       <r>    -0.6686     0.0000    90.0000 </r>
       <r>    -0.6120     0.0000    90.0000 </r>
       <r>    -0.5553     0.0000    90.0000 </r>
       <r>    -0.4987     0.0000    90.0000 </r>
       <r>    -0.4420     0.0000    90.0000 </r>
       <r>    -0.3854     0.0000    90.0000 </r>
       <r>    -0.3287     0.0000    90.0000 </r>
       <r>    -0.2721     0.0000    90.0000 </r>
       <r>    -0.2154     0.0000    90.0000 </r>
       <r>    -0.1588     0.0000    90.0000 </r>
       <r>    -0.1021     0.0014    90.0001 </r>
       <r>    -0.0455     0.0319    90.0019 </r>
       <r>     0.0112     0.4005    90.0246 </r>
       <r>     0.0678     2.8851    90.1880 </r>
       <r>     0.1245    12.2301    90.8809 </r>
       <r>     0.1811    31.5409    92.6677 </r>
       <r>     0.2378    52.0122    95.6142 </r>
       <r>     0.2944    60.3066    99.0306 </r>
       <r>     0.3511    59.3333   102.3919 </r>
       <r>     0.4077    60.7944   105.8359 </r>
       <r>     0.4644    61.4114   109.3149 </r>
       <r>     0.5210    48.2994   112.0511 </r>
       <r>     0.5777    25.0052   113.4676 </r>
       <r>     0.6343     7.8269   113.9110 </r>
       <r>     0.6910     1.4171   113.9913 </r>
       <r>     0.7476     0.1447   113.9995 </r>
       <r>     0.8043     0.0082   114.0000 </r>
       <r>     0.8609     0.0003   114.0000 </r>
       <r>     0.9176     0.0000   114.0000 </r>
       <r>     0.9742     0.0000   114.0000 </r>
       <r>     1.0309     0.0000   114.0000 </r>
       <r>     1.0875     0.0000   114.0000 </r>
       <r>     1.1442     0.0000   114.0000 </r>
       <r>     1.2008     0.0000   114.0000 </r>
       <r>     1.2575     0.0000   114.0000 </r>
       <r>     1.3141     0.0000   114.0000 </r>
       <r>     1.3708     0.0000   114.0000 </r>
       <r>     1.4274     0.0001   114.0000 </r>
       <r>     1.4841     0.0024   114.0001 </r>
       <r>     1.5407     0.0538   114.0032 </r>
       <r>     1.5974     0.6646   114.0408 </r>
       <r>     1.6540     4.6481   114.3042 </r>
       <r>     1.7107    18.9927   115.3801 </r>
       <r>     1.7673    47.8620   118.0915 </r>
       <r>     1.8240    81.6335   122.7161 </r>
       <r>     1.8806   108.2185   128.8467 </r>
       <r>     1.9373   126.8908   136.0352 </r>
       <r>     1.9940   135.5293   143.7130 </r>
       <r>     2.0506   125.5188   150.8237 </r>
       <r>     2.1073    96.4257   156.2863 </r>
       <r>     2.1639    61.1889   159.7527 </r>
       <r>     2.2206    36.0885   161.7971 </r>
       <r>     2.2772    31.5879   163.5866 </r>
       <r>     2.3339    42.7664   166.0093 </r>
       <r>     2.3905    49.8757   168.8348 </r>
       <r>     2.4472    41.9605   171.2119 </r>
       <r>     2.5038    27.2145   172.7536 </r>
       <r>     2.5605    14.5202   173.5762 </r>
       <r>     2.6171     5.7853   173.9040 </r>
       <r>     2.6738     1.4679   173.9871 </r>
       <r>     2.7304     0.2917   174.0036 </r>
       <r>     2.7871     0.9573   174.0579 </r>
       <r>     2.8437     6.3152   174.4156 </r>
       <r>     2.9004    23.9344   175.7715 </r>
       <r>     2.9570    51.5037   178.6892 </r>
       <r>     3.0137    63.1207   182.2651 </r>
       <r>     3.0703    44.0531   184.7607 </r>
       <r>     3.1270    17.4512   185.7493 </r>
       <r>     3.1836     3.9011   185.9703 </r>
       <r>     3.2403     0.4885   185.9980 </r>
       <r>     3.2969     0.0340   185.9999 </r>
       <r>     3.3536     0.0013   186.0000 </r>
       <r>     3.4102     0.0000   186.0000 </r>
       <r>     3.4669     0.0003   186.0000 </r>
       <r>     3.5235     0.0077   186.0004 </r>
       <r>     3.5802     0.1247   186.0075 </r>
       <r>     3.6368     1.1334   186.0717 </r>
       <r>     3.6935     5.9302   186.4077 </r>
       <r>     3.7501    18.8347   187.4747 </r>
       <r>     3.8068    39.6571   189.7213 </r>
       <r>     3.8634    61.7567   193.2198 </r>
       <r>     3.9201    77.3949   197.6043 </r>
       <r>     3.9767    80.6700   202.1743 </r>
       <r>     4.0334    68.4901   206.0543 </r>
       <r>     4.0900    43.9175   208.5423 </r>
       <r>     4.1467    19.3717   209.6397 </r>
       <r>     4.2033     5.8405   209.9705 </r>
       <r>     4.2600     3.8267   210.1873 </r>
       <r>     4.3166    11.9014   210.8616 </r>
       <r>     4.3733    31.1095   212.6239 </r>
       <r>     4.4299    57.7589   215.8960 </r>
       <r>     4.4866    81.3571   220.5049 </r>
       <r>     4.5432    91.3137   225.6779 </r>
       <r>     4.5999    87.6348   230.6425 </r>
       <r>     4.6565    84.1492   235.4096 </r>
       <r>     4.7132    85.8343   240.2721 </r>
       <r>     4.7698    78.7253   244.7320 </r>
       <r>     4.8265    55.2831   247.8638 </r>
       <r>     4.8831    27.1505   249.4019 </r>
       <r>     4.9398     8.6714   249.8931 </r>
       <r>     4.9964     1.6850   249.9886 </r>
       <r>     5.0531     0.1893   249.9993 </r>
       <r>     5.1097     0.0119   250.0000 </r>
       <r>     5.1664     0.0004   250.0000 </r>
       <r>     5.2230     0.0000   250.0000 </r>
       <r>     5.2797     0.0000   250.0000 </r>
       <r>     5.3363     0.0000   250.0000 </r>
       <r>     5.3930     0.0000   250.0000 </r>
       <r>     5.4496     0.0000   250.0000 </r>
       <r>     5.5063     0.0000   250.0000 </r>
       <r>     5.5629     0.0015   250.0001 </r>
       <r>     5.6196     0.0317   250.0019 </r>
       <r>     5.6762     0.3812   250.0235 </r>
       <r>     5.7329     2.5692   250.1690 </r>
       <r>     5.7895     9.8846   250.7290 </r>
       <r>     5.8462    22.2223   251.9879 </r>
       <r>     5.9028    29.8964   253.6815 </r>
       <r>     5.9595    24.4570   255.0670 </r>
       <r>     6.0161    12.1633   255.7561 </r>
       <r>     6.0728     3.6211   255.9612 </r>
       <r>     6.1294     0.7425   256.0033 </r>
       <r>     6.1861     1.2732   256.0754 </r>
       <r>     6.2427     7.0051   256.4723 </r>
       <r>     6.2994    23.0787   257.7797 </r>
       <r>     6.3560    45.1345   260.3366 </r>
       <r>     6.4127    55.4515   263.4780 </r>
       <r>     6.4693    45.1118   266.0336 </r>
       <r>     6.5260    24.4496   267.4186 </r>
       <r>     6.5826     8.7210   267.9127 </r>
       <r>     6.6393     4.0368   268.1414 </r>
       <r>     6.6960     9.6064   268.6856 </r>
       <r>     6.7526    24.5200   270.0747 </r>
       <r>     6.8093    43.4419   272.5357 </r>
       <r>     6.8659    53.2953   275.5549 </r>
       <r>     6.9226    44.3923   278.0697 </r>
       <r>     6.9792    24.1231   279.4363 </r>
       <r>     7.0359     8.2738   279.9050 </r>
       <r>     7.0925     3.0289   280.0766 </r>
       <r>     7.1492     7.9523   280.5271 </r>
       <r>     7.2058    23.8470   281.8781 </r>
       <r>     7.2625    40.7567   284.1870 </r>
       <r>     7.3191    38.9765   286.3950 </r>
       <r>     7.3758    20.8926   287.5786 </r>
       <r>     7.4324     6.2786   287.9343 </r>
       <r>     7.4891     1.0559   287.9941 </r>
       <r>     7.5457     0.0990   287.9997 </r>
       <r>     7.6024     0.0052   288.0000 </r>
       <r>     7.6590     0.0006   288.0000 </r>
       <r>     7.7157     0.0119   288.0007 </r>
       <r>     7.7723     0.1605   288.0098 </r>
       <r>     7.8290     1.1920   288.0773 </r>
       <r>     7.8856     5.1062   288.3666 </r>
       <r>     7.9423    13.9892   289.1591 </r>
       <r>     7.9989    28.8454   290.7932 </r>
       <r>     8.0556    49.3976   293.5916 </r>
       <r>     8.1122    68.6975   297.4834 </r>
       <r>     8.1689    77.9459   301.8990 </r>
       <r>     8.2255    75.5829   306.1809 </r>
       <r>     8.2822    63.3990   309.7724 </r>
       <r>     8.3388    47.8713   312.4844 </r>
       <r>     8.3955    35.4966   314.4953 </r>
       <r>     8.4521    25.9395   315.9648 </r>
       <r>     8.5088    18.3601   317.0049 </r>
       <r>     8.5654    11.8434   317.6758 </r>
       <r>     8.6221     7.6214   318.1076 </r>
       <r>     8.6787     9.4288   318.6417 </r>
       <r>     8.7354    14.9588   319.4892 </r>
       <r>     8.7920    17.7466   320.4945 </r>
       <r>     8.8487    14.8699   321.3369 </r>
       <r>     8.9053     8.2940   321.8068 </r>
       <r>     8.9620     2.8087   321.9659 </r>
       <r>     9.0186     0.5415   321.9965 </r>
       <r>     9.0753     0.0575   321.9998 </r>
       <r>     9.1319     0.0033   322.0000 </r>
       <r>     9.1886     0.0001   322.0000 </r>
       <r>     9.2452     0.0000   322.0000 </r>
       <r>     9.3019     0.0000   322.0000 </r>
       <r>     9.3585     0.0000   322.0000 </r>
       <r>     9.4152     0.0000   322.0000 </r>
       <r>     9.4718     0.0000   322.0000 </r>
       <r>     9.5285     0.0000   322.0000 </r>
       <r>     9.5851     0.0000   322.0000 </r>
       <r>     9.6418     0.0000   322.0000 </r>
       <r>     9.6984     0.0000   322.0000 </r>
       <r>     9.7551     0.0000   322.0000 </r>
       <r>     9.8117     0.0000   322.0000 </r>
      </set>
     </set>
    </array>
   </total>
  </dos>
 </calculation>
 <structure name="finalpos" >
  <crystal>
   <varray name="basis" >
    <v>      10.86180000       0.00000000       0.00000000 </v>
    <v>       0.00000000      10.86180000       0.00000000 </v>
    <v>       0.00000000       0.00000000      10.86180000 </v>
   </varray>
   <i name="volume">   1281.46103541 </i>
   <varray name="rec_basis" >
    <v>       0.09206577       0.00000000       0.00000000 </v>
    <v>       0.00000000       0.09206577       0.00000000 </v>
    <v>       0.00000000       0.00000000       0.09206577 </v>
   </varray>
  </crystal>
  <varray name="positions" >
   <v>       0.99441509       0.00457819       0.99660777 </v>
   <v>       0.49894829       0.99809452       0.00621769 </v>
   <v>       0.00665525       0.50604960       0.00385756 </v>
   <v>       0.48775965       0.50493863       0.98945517 </v>
   <v>       0.99794828       0.99642503       0.49694564 </v>
   <v>       0.50351901       0.01120305       0.49935861 </v>
   <v>       0.00658223       0.49232443       0.50197957 </v>
   <v>       0.48989100       0.50478600       0.50017582 </v>
   <v>       0.38610141       0.12238786       0.37655630 </v>
   <v>       0.88406216       0.12892899       0.35820392 </v>
   <v>       0.38462626       0.63369627       0.36588783 </v>
   <v>       0.86840597       0.61548826       0.37077913 </v>
   <v>       0.37471198       0.10885095       0.87676616 </v>
   <v>       0.86041755       0.12225970       0.87943913 </v>
   <v>       0.36551177       0.63714422       0.85706259 </v>
   <v>       0.86461544       0.62180568       0.87421285 </v>
   <v>       0.00675868       0.25585342       0.24848895 </v>
   <v>       0.49674443       0.25502399       0.25070760 </v>
   <v>       0.00415949       0.74773859       0.24679710 </v>
   <v>       0.50552176       0.76599391       0.24710595 </v>
   <v>       0.99398378       0.23956951       0.75722284 </v>
   <v>       0.49418231       0.24924717       0.75937849 </v>
   <v>       0.98985901       0.75549686       0.75013493 </v>
   <v>       0.51926890       0.75357816       0.75493782 </v>
   <v>       0.37997180       0.37248825       0.11009236 </v>
   <v>       0.87865715       0.38706827       0.11975869 </v>
   <v>       0.37360808       0.88616072       0.12675346 </v>
   <v>       0.87925992       0.87230405       0.12882584 </v>
   <v>       0.36824866       0.36603347       0.63935121 </v>
   <v>       0.88529668       0.36953026       0.62824506 </v>
   <v>       0.38609738       0.86764599       0.62908241 </v>
   <v>       0.87287941       0.87425095       0.61520113 </v>
   <v>       0.24593261       0.99526922       0.26519163 </v>
   <v>       0.74718800       0.01045266       0.24933069 </v>
   <v>       0.25860455       0.50509857       0.24442200 </v>
   <v>       0.74736482       0.48717902       0.25275452 </v>
   <v>       0.24433694       0.98538187       0.74964041 </v>
   <v>       0.74464211       0.99769853       0.74375376 </v>
   <v>       0.24729287       0.50008378       0.74534121 </v>
   <v>       0.75102278       0.49024129       0.73956721 </v>
   <v>       0.12329925       0.12308783       0.12342033 </v>
   <v>       0.62919706       0.13307032       0.12439857 </v>
   <v>       0.12550394       0.62516534       0.12900406 </v>
   <v>       0.61984425       0.62060032       0.13198017 </v>
   <v>       0.12537985       0.11869784       0.62291830 </v>
   <v>       0.62213476       0.13517787       0.62244963 </v>
   <v>       0.12169407       0.62888348       0.62994077 </v>
   <v>       0.63234406       0.61964591       0.62090102 </v>
   <v>       0.24479029       0.24380382       0.00404869 </v>
   <v>       0.74752349       0.24998498       0.99724196 </v>
   <v>       0.24449166       0.75359494       0.99923878 </v>
   <v>       0.74624182       0.73848728       0.01383783 </v>
   <v>       0.25440504       0.24320877       0.50526322 </v>
   <v>       0.76148245       0.25272358       0.49535312 </v>
   <v>       0.24883827       0.74420098       0.49918009 </v>
   <v>       0.75662010       0.75393674       0.49242801 </v>
   <v>       0.13159341       0.37909820       0.38511348 </v>
   <v>       0.62289197       0.38016292       0.38771965 </v>
   <v>       0.12908145       0.86592562       0.37624476 </v>
   <v>       0.63000893       0.87580368       0.37295144 </v>
   <v>       0.12087258       0.37373495       0.87418108 </v>
   <v>       0.62619136       0.37677539       0.87271794 </v>
   <v>       0.11086693       0.88456531       0.87543834 </v>
   <v>       0.62964956       0.88131406       0.88843773 </v>
  </varray>
  <varray name="velocities" >
   <v>      -0.00115469       0.00082248      -0.00015968 </v>
   <v>       0.00062549      -0.00053279      -0.00060658 </v>
   <v>      -0.00040563      -0.00061890       0.00139957 </v>
   <v>      -0.00188423       0.00117591      -0.00078620 </v>
   <v>      -0.00152408      -0.00078990       0.00049850 </v>
   <v>       0.00009789       0.00150559      -0.00023991 </v>
   <v>       0.00000256       0.00005242      -0.00093269 </v>
   <v>      -0.00051870       0.00131743      -0.00117742 </v>
   <v>       0.00100282      -0.00091159       0.00065648 </v>
   <v>       0.00353633       0.00198754      -0.00142326 </v>
   <v>       0.00155928       0.00046407       0.00010217 </v>
   <v>      -0.00010824      -0.00200117      -0.00041711 </v>
   <v>      -0.00000862      -0.00275942       0.00079278 </v>
   <v>      -0.00077965      -0.00058821       0.00036370 </v>
   <v>      -0.00048007       0.00146918      -0.00113358 </v>
   <v>      -0.00012558      -0.00006741      -0.00074312 </v>
   <v>       0.00005299      -0.00144479      -0.00101080 </v>
   <v>      -0.00132345       0.00012889       0.00019131 </v>
   <v>       0.00064204      -0.00131318      -0.00080493 </v>
   <v>       0.00053454       0.00101614      -0.00018278 </v>
   <v>      -0.00082453      -0.00114522      -0.00005826 </v>
   <v>      -0.00063182      -0.00073187       0.00130436 </v>
   <v>      -0.00122536       0.00052606       0.00019286 </v>
   <v>       0.00261582       0.00043795       0.00029566 </v>
   <v>       0.00103671       0.00008958      -0.00352370 </v>
   <v>      -0.00006308       0.00156026      -0.00030282 </v>
   <v>      -0.00074011       0.00051999       0.00067491 </v>
   <v>       0.00049924      -0.00065047       0.00019810 </v>
   <v>      -0.00124615      -0.00126296       0.00047963 </v>
   <v>       0.00056374      -0.00159020      -0.00024355 </v>
   <v>       0.00098742      -0.00112353       0.00145935 </v>
   <v>      -0.00130352      -0.00033594      -0.00201551 </v>
   <v>      -0.00095318       0.00034364       0.00217899 </v>
   <v>       0.00037951       0.00037011       0.00140129 </v>
   <v>      -0.00045035       0.00089105      -0.00093339 </v>
   <v>      -0.00042805      -0.00050881      -0.00109864 </v>
   <v>      -0.00099646      -0.00226703       0.00037409 </v>
   <v>      -0.00103755      -0.00088184      -0.00035595 </v>
   <v>      -0.00006657       0.00054772       0.00034888 </v>
   <v>      -0.00093975      -0.00047227      -0.00035818 </v>
   <v>      -0.00069005       0.00136199       0.00070137 </v>
   <v>       0.00042667       0.00063970      -0.00053805 </v>
   <v>      -0.00057646      -0.00006984      -0.00085972 </v>
   <v>      -0.00002775       0.00027533       0.00054475 </v>
   <v>       0.00070599      -0.00185125      -0.00077091 </v>
   <v>      -0.00069461       0.00037265       0.00047795 </v>
   <v>      -0.00035617       0.00076194       0.00022357 </v>
   <v>       0.00072316       0.00095819       0.00057469 </v>
   <v>      -0.00085124      -0.00035234       0.00073959 </v>
   <v>       0.00012827       0.00197340       0.00051328 </v>
   <v>      -0.00091762      -0.00023956      -0.00053918 </v>
   <v>      -0.00154405      -0.00170628       0.00142199 </v>
   <v>      -0.00008624      -0.00080368       0.00004512 </v>
   <v>       0.00353211       0.00056382      -0.00074507 </v>
   <v>       0.00157151      -0.00055242       0.00022294 </v>
   <v>       0.00141558       0.00234667       0.00039184 </v>
   <v>       0.00173920      -0.00038303       0.00010113 </v>
   <v>       0.00178519       0.00121733       0.00082668 </v>
   <v>       0.00057787       0.00009382       0.00050114 </v>
   <v>       0.00071104       0.00061773      -0.00018111 </v>
   <v>      -0.00083960      -0.00031614       0.00093909 </v>
   <v>      -0.00000933       0.00128108       0.00012090 </v>
   <v>      -0.00100822       0.00079510      -0.00049466 </v>
   <v>      -0.00063225      -0.00021272       0.00137810 </v>
  </varray>
 </structure>
</modeling>
