si_2x2x2                                
           1
    10.861800    0.000000    0.000000
     0.000000   10.861800    0.000000
     0.000000    0.000000   10.861800
   Si
  64
Direct configuration=     1
   0.00000000  0.00000000  0.00000000
   0.50000000  0.00000000  0.00000000
   0.00000000  0.50000000  0.00000000
   0.50000000  0.50000000  0.00000000
   0.00000000  0.00000000  0.50000000
   0.50000000  0.00000000  0.50000000
   0.00000000  0.50000000  0.50000000
   0.50000000  0.50000000  0.50000000
   0.37500000  0.12500000  0.37500000
   0.87500000  0.12500000  0.37500000
   0.37500000  0.62500000  0.37500000
   0.87500000  0.62500000  0.37500000
   0.37500000  0.12500000  0.87500000
   0.87500000  0.12500000  0.87500000
   0.37500000  0.62500000  0.87500000
   0.87500000  0.62500000  0.87500000
   0.00000000  0.25000000  0.25000000
   0.50000000  0.25000000  0.25000000
   0.00000000  0.75000000  0.25000000
   0.50000000  0.75000000  0.25000000
   0.00000000  0.25000000  0.75000000
   0.50000000  0.25000000  0.75000000
   0.00000000  0.75000000  0.75000000
   0.50000000  0.75000000  0.75000000
   0.37500000  0.37500000  0.12500000
   0.87500000  0.37500000  0.12500000
   0.37500000  0.87500000  0.12500000
   0.87500000  0.87500000  0.12500000
   0.37500000  0.37500000  0.62500000
   0.87500000  0.37500000  0.62500000
   0.37500000  0.87500000  0.62500000
   0.87500000  0.87500000  0.62500000
   0.25000000  0.00000000  0.25000000
   0.75000000  0.00000000  0.25000000
   0.25000000  0.50000000  0.25000000
   0.75000000  0.50000000  0.25000000
   0.25000000  0.00000000  0.75000000
   0.75000000  0.00000000  0.75000000
   0.25000000  0.50000000  0.75000000
   0.75000000  0.50000000  0.75000000
   0.12500000  0.12500000  0.12500000
   0.62500000  0.12500000  0.12500000
   0.12500000  0.62500000  0.12500000
   0.62500000  0.62500000  0.12500000
   0.12500000  0.12500000  0.62500000
   0.62500000  0.12500000  0.62500000
   0.12500000  0.62500000  0.62500000
   0.62500000  0.62500000  0.62500000
   0.25000000  0.25000000  0.00000000
   0.75000000  0.25000000  0.00000000
   0.25000000  0.75000000  0.00000000
   0.75000000  0.75000000  0.00000000
   0.25000000  0.25000000  0.50000000
   0.75000000  0.25000000  0.50000000
   0.25000000  0.75000000  0.50000000
   0.75000000  0.75000000  0.50000000
   0.12500000  0.37500000  0.37500000
   0.62500000  0.37500000  0.37500000
   0.12500000  0.87500000  0.37500000
   0.62500000  0.87500000  0.37500000
   0.12500000  0.37500000  0.87500000
   0.62500000  0.37500000  0.87500000
   0.12500000  0.87500000  0.87500000
   0.62500000  0.87500000  0.87500000
Direct configuration=     2
   0.00005674 -0.00139910  0.00139881
   0.50013607  0.00053323  0.00082801
   0.00004120  0.49838835  0.00026170
   0.50014854  0.49957205  0.00112377
   0.00044671 -0.00162877  0.50106861
   0.50144043  0.00220738  0.49885023
   0.00202409  0.49978325  0.49896214
   0.50064362  0.49945616  0.49967302
   0.37730524  0.12442951  0.37466807
   0.87552627  0.12654044  0.37548103
   0.37522305  0.62311662  0.37553743
   0.87658546  0.62418750  0.37481870
   0.37595310  0.12361570  0.87571811
   0.87435872  0.12502465  0.87638980
   0.37304040  0.62557972  0.87633203
   0.87448707  0.62524268  0.87335736
   0.00049582  0.24857843  0.24931319
   0.49872173  0.24905785  0.24995167
   0.00042798  0.75027550  0.24906491
   0.50198960  0.75041666  0.25184385
   0.00010999  0.24997609  0.74987574
   0.49785518  0.24947987  0.74882526
  -0.00035831  0.74773344  0.74936033
   0.50067857  0.75135323  0.74910194
   0.37531605  0.37570651  0.12428856
   0.87502004  0.37595541  0.12319795
   0.37561269  0.87418554  0.12547011
   0.87500849  0.87440771  0.12663223
   0.37496461  0.37402075  0.62577541
   0.87340432  0.37421231  0.62420870
   0.37472165  0.87483757  0.62456068
   0.87312927  0.87519660  0.62441897
   0.24985726 -0.00096955  0.24996298
   0.74923679  0.00120907  0.24943057
   0.24871657  0.50211873  0.25133051
   0.75074568  0.50037088  0.24880732
   0.24902221 -0.00097071  0.75155135
   0.75024617 -0.00003346  0.75102617
   0.25031145  0.49987759  0.74833810
   0.74986832  0.49925347  0.74883101
   0.12411285  0.12410579  0.12350389
   0.62512726  0.12612473  0.12663309
   0.12383128  0.62618534  0.12395574
   0.62486430  0.62674776  0.12351986
   0.12397088  0.12434725  0.62391381
   0.62597351  0.12308280  0.62660132
   0.12408354  0.62607755  0.62509393
   0.62469450  0.62384344  0.62586329
   0.24876005  0.24912029 -0.00008419
   0.74928613  0.25038285  0.00142697
   0.24969779  0.75052098  0.00069936
   0.74957577  0.75110658  0.00146460
   0.25189238  0.25014433  0.50331075
   0.75120646  0.25311487  0.50026349
   0.24965545  0.75064401  0.50098385
   0.75200719  0.75039956  0.49818830
   0.12769474  0.37700154  0.37401988
   0.62479552  0.37505141  0.37483194
   0.12606230  0.87512454  0.37315588
   0.62600772  0.87484997  0.37329775
   0.12379985  0.37543829  0.87343416
   0.62461361  0.37544073  0.87481163
   0.12055176  0.87363534  0.87647937
   0.62521634  0.87661122  0.87499500
Direct configuration=     3
   0.00002059 -0.00276522  0.00277138
   0.50030473  0.00105109  0.00168988
   0.00007159  0.49686959  0.00044114
   0.50028473  0.49920442  0.00219026
   0.00086037 -0.00322878  0.50203895
   0.50287942  0.00427663  0.49774817
   0.00398621  0.49954314  0.49798179
   0.50126955  0.49888101  0.49937900
   0.37948156  0.12387873  0.37437553
   0.87605335  0.12801059  0.37599788
   0.37546592  0.62134282  0.37611387
   0.87817922  0.62338061  0.37462241
   0.37684531  0.12226197  0.87644066
   0.87376663  0.12503796  0.87778621
   0.37117620  0.62613006  0.87760262
   0.87396354  0.62543193  0.87181432
   0.00100956  0.24725407  0.24862653
   0.49748299  0.24819759  0.24989907
   0.00083724  0.75052768  0.24818906
   0.50389753  0.75077678  0.25364325
   0.00015502  0.24992293  0.74973182
   0.49580157  0.24893070  0.74771674
  -0.00078882  0.74554496  0.74870579
   0.50132289  0.75265975  0.74826888
   0.37555275  0.37639936  0.12363234
   0.87506674  0.37684760  0.12148434
   0.37624779  0.87338961  0.12595282
   0.87499851  0.87387234  0.12824179
   0.37497957  0.37312398  0.62651637
   0.87196183  0.37351566  0.62344269
   0.37448707  0.87476872  0.62410915
   0.87134210  0.87536398  0.62388556
   0.24976194 -0.00185417  0.24989069
   0.74853461  0.00242107  0.24889754
   0.24749746  0.50422769  0.25253061
   0.75145172  0.50076226  0.24762521
   0.24800866 -0.00196364  0.75309508
   0.75051331 -0.00006498  0.75204148
   0.25059339  0.49978715  0.74672461
   0.74973203  0.49852027  0.74770931
   0.12326272  0.12318839  0.12206608
   0.62521278  0.12721316  0.12820479
   0.12268756  0.62730804  0.12292331
   0.62472036  0.62843270  0.12210762
   0.12298584  0.12367981  0.62289837
   0.62693931  0.12129774  0.62812000
   0.12321794  0.62709011  0.62514866
   0.62441620  0.62275620  0.62663502
   0.24756100  0.24829095 -0.00021359
   0.74856042  0.25078098  0.00280052
   0.24936225  0.75105296  0.00137065
   0.74918322  0.75222063  0.00283183
   0.25373108  0.25025553  0.50646633
   0.75231627  0.25609092  0.50051440
   0.24933471  0.75124577  0.50188792
   0.75393384  0.75073632  0.49640429
   0.13034084  0.37884832  0.37310986
   0.62459110  0.37511806  0.37462696
   0.12707268  0.87522430  0.37138952
   0.62701446  0.87476261  0.37168607
   0.12266185  0.37586186  0.87190523
   0.62419850  0.37584234  0.87461989
   0.11622950  0.87227955  0.87791178
   0.62540916  0.87818489  0.87502969
Direct configuration=     4
  -0.00019362 -0.00406887  0.00410085
   0.50053104  0.00153261  0.00259793
   0.00009091  0.49553030  0.00046538
   0.50040059  0.49895201  0.00312475
   0.00121522 -0.00477483  0.50283509
   0.50433042  0.00607859  0.49674029
   0.00583849  0.49926003  0.49710503
   0.50184710  0.49825823  0.49915881
   0.38140669  0.12336755  0.37414335
   0.87656817  0.12936597  0.37657060
   0.37573480  0.61977142  0.37676020
   0.87978347  0.62258169  0.37438308
   0.37760285  0.12097476  0.87715368
   0.87325716  0.12505048  0.87918747
   0.36947337  0.62663216  0.87875617
   0.87340810  0.62552433  0.87045357
   0.00155367  0.24610518  0.24792873
   0.49630600  0.24748595  0.24983969
   0.00123176  0.75073579  0.24739234
   0.50563654  0.75102159  0.25532990
   0.00007697  0.24981210  0.74955176
   0.49393579  0.24831995  0.74674671
  -0.00134958  0.74352684  0.74804138
   0.50189847  0.75388035  0.74754600
   0.37563928  0.37705090  0.12309139
   0.87514115  0.37761815  0.11994735
   0.37690795  0.87262639  0.12646597
   0.87493667  0.87344231  0.12982346
   0.37507651  0.37238249  0.62719954
   0.87080025  0.37298761  0.62275874
   0.37431282  0.87485718  0.62364892
   0.86970224  0.87548502  0.62344376
   0.24975226 -0.00261382  0.24974399
   0.74795739  0.00363559  0.24843622
   0.24641516  0.50632041  0.25346937
   0.75210344  0.50119591  0.24644588
   0.24693146 -0.00297888  0.75461967
   0.75083871 -0.00009306  0.75308112
   0.25081741  0.49976772  0.74520432
   0.74958625  0.49779416  0.74666287
   0.12250549  0.12224856  0.12075463
   0.62522870  0.12826520  0.12967677
   0.12159512  0.62832639  0.12191799
   0.62456582  0.63000204  0.12085012
   0.12209723  0.12300606  0.62203029
   0.62789591  0.11976277  0.62950245
   0.12246240  0.62798858  0.62511636
   0.62419250  0.62180951  0.62725662
   0.24642710  0.24753552 -0.00043071
   0.74781361  0.25119717  0.00407844
   0.24894790  0.75162823  0.00201828
   0.74886661  0.75335043  0.00400178
   0.25545898  0.25029524  0.50931679
   0.75323538  0.25877231  0.50071541
   0.24904705  0.75179794  0.50267744
   0.75569912  0.75095736  0.49468224
   0.13287887  0.38038769  0.37233072
   0.62440041  0.37519975  0.37434188
   0.12800412  0.87526152  0.36977052
   0.62804722  0.87478595  0.37023407
   0.12165460  0.37625421  0.87042708
   0.62373506  0.37616620  0.87440670
   0.11217008  0.87092542  0.87923700
   0.62556737  0.87967367  0.87513181
Direct configuration=     5
  -0.00065974 -0.00528560  0.00537717
   0.50083665  0.00196498  0.00357121
   0.00010698  0.49446803  0.00027324
   0.50049282  0.49885597  0.00387781
   0.00148976 -0.00624378  0.50338574
   0.50580703  0.00751181  0.49586852
   0.00753445  0.49891930  0.49636453
   0.50235662  0.49757824  0.49904735
   0.38297127  0.12291048  0.37399952
   0.87705944  0.13055664  0.37721022
   0.37602864  0.61848077  0.37750150
   0.88139711  0.62179177  0.37408152
   0.37816360  0.11979018  0.87784700
   0.87285771  0.12506118  0.88059439
   0.36800125  0.62706734  0.87973886
   0.87278770  0.62548907  0.86933496
   0.00213437  0.24520454  0.24722249
   0.49521693  0.24699944  0.24976404
   0.00160051  0.75089396  0.24671487
   0.50712577  0.75109501  0.25684371
  -0.00016964  0.24961956  0.74932216
   0.49234507  0.24761003  0.74600481
  -0.00209291  0.74177037  0.74736459
   0.50237458  0.75497972  0.74697265
   0.37551368  0.37763635  0.12271025
   0.87523421  0.37820893  0.11866971
   0.37760514  0.87189525  0.12702787
   0.87479461  0.87315555  0.13136738
   0.37529299  0.37187365  0.62782053
   0.87005014  0.37270232  0.62221353
   0.37421218  0.87515706  0.62318976
   0.86826193  0.87553743  0.62313243
   0.24987722 -0.00319777  0.24949706
   0.74756133  0.00484988  0.24808944
   0.24553055  0.50839824  0.25403204
   0.75267311  0.50168499  0.24528237
   0.24578006 -0.00401791  0.75610591
   0.75124239 -0.00011740  0.75414852
   0.25096461  0.49984874  0.74382050
   0.74941591  0.49708536  0.74573838
   0.12187945  0.12128751  0.11962524
   0.62515673  0.12926680  0.13099887
   0.12057102  0.62919393  0.12095044
   0.62439668  0.63140782  0.11980554
   0.12134805  0.12233089  0.62136991
   0.62883133  0.11858827  0.63069811
   0.12187545  0.62873055  0.62496785
   0.62403236  0.62105472  0.62767796
   0.24539192  0.24689564 -0.00076661
   0.74704242  0.25163992  0.00521054
   0.24842642  0.75226696  0.00262397
   0.74865631  0.75449205  0.00490282
   0.25701368  0.25021630  0.51172567
   0.75388486  0.26102702  0.50080761
   0.24880692  0.75227748  0.50330616
   0.75723329  0.75102377  0.49305211
   0.13527838  0.38149754  0.37172284
   0.62423329  0.37529623  0.37392930
   0.12882193  0.87520052  0.36836398
   0.62913527  0.87496028  0.36901717
   0.12083002  0.37659622  0.86901455
   0.62321475  0.37637643  0.87415727
   0.10848185  0.86954445  0.88038750
   0.62568159  0.88103897  0.87532267
Direct configuration=     6
  -0.00142882 -0.00639006  0.00658933
   0.50123625  0.00233669  0.00462427
   0.00013504  0.49375009 -0.00017378
   0.50055471  0.49894300  0.00441297
   0.00166978 -0.00761013  0.50364701
   0.50732838  0.00850326  0.49516604
   0.00904357  0.49851047  0.49578154
   0.50279185  0.49682556  0.49907154
   0.38408918  0.12251860  0.37396803
   0.87751973  0.13157066  0.37791708
   0.37634792  0.61753289  0.37835160
   0.88300740  0.62102678  0.37370202
   0.37847703  0.11872476  0.87850245
   0.87258936  0.12507721  0.88201010
   0.36678707  0.62742330  0.88051524
   0.87207854  0.62529506  0.86852349
   0.00275514  0.24459911  0.24651555
   0.49424000  0.24680842  0.24966939
   0.00193494  0.75098992  0.24619716
   0.50829752  0.75095089  0.25813823
  -0.00061379  0.24932613  0.74903636
   0.49111011  0.24677468  0.74553486
  -0.00305415  0.74034435  0.74667348
   0.50273251  0.75592846  0.74658387
   0.37511732  0.37814155  0.12251082
   0.87534423  0.37857555  0.11771124
   0.37834546  0.87120041  0.12765425
   0.87454226  0.87303706  0.13286424
   0.37564425  0.37165524  0.62837509
   0.86981551  0.37270936  0.62185626
   0.37420060  0.87570662  0.62274176
   0.86705643  0.87550078  0.62297484
   0.25017569 -0.00355978  0.24912546
   0.74740012  0.00605981  0.24789650
   0.24488005  0.51046992  0.25414410
   0.75314301  0.50223870  0.24414396
   0.24454512 -0.00508527  0.75753797
   0.75175335 -0.00013079  0.75524532
   0.25101797  0.50006008  0.74262425
   0.74921835  0.49640502  0.74495283
   0.12143292  0.12030636  0.11871428
   0.62497939  0.13020796  0.13213339
   0.11963865  0.62987531  0.12002919
   0.62421110  0.63261269  0.11901534
   0.12077219  0.12166007  0.62096285
   0.62972275  0.11782987  0.63167817
   0.12150238  0.62927388  0.62467285
   0.62394580  0.62053643  0.62785694
   0.24448416  0.24639532 -0.00124110
   0.74624917  0.25210889  0.00615045
   0.24778546  0.75297894  0.00316814
   0.74857566  0.75564774  0.00546504
   0.25833401  0.24997290  0.51359529
   0.75420328  0.26275612  0.50074587
   0.24862916  0.75266806  0.50373682
   0.75849089  0.75090831  0.49154001
   0.13750260  0.38208908  0.37132590
   0.62409735  0.37540808  0.37335320
   0.12950227  0.87502065  0.36721838
   0.63029371  0.87531431  0.36808620
   0.12022443  0.37686931  0.86766884
   0.62261927  0.37645600  0.87386285
   0.10523819  0.86811639  0.88132608
   0.62573622  0.88224293  0.87561830
Direct configuration=     7
  -0.00252910 -0.00736249  0.00772428
   0.50173662  0.00263787  0.00577320
   0.00017625  0.49339681 -0.00090789
   0.50058212  0.49922503  0.00470015
   0.00174177 -0.00886290  0.50359617
   0.50890799  0.00900987  0.49465198
   0.01034885  0.49801578  0.49536752
   0.50314969  0.49599417  0.49924713
   0.38470863  0.12220016  0.37406310
   0.87796320  0.13238802  0.37869840
   0.37669659  0.61697515  0.37931644
   0.88460226  0.62029549  0.37323274
   0.37850004  0.11778802  0.87911282
   0.87245764  0.12510621  0.88343416
   0.36585847  0.62770003  0.88105926
   0.87126651  0.62492195  0.86806167
   0.00341148  0.24431634  0.24581669
   0.49337649  0.24695916  0.24955652
   0.00223308  0.75101014  0.24586068
   0.50910876  0.75056250  0.25919141
  -0.00126943  0.24891704  0.74869195
   0.49026814  0.24578582  0.74537740
  -0.00425002  0.73928956  0.74597148
   0.50295972  0.75671176  0.74639084
   0.37442419  0.37855981  0.12250450
   0.87547432  0.37868780  0.11711085
   0.37912466  0.87054971  0.12834997
   0.87415562  0.87310568  0.13429976
   0.37613922  0.37176772  0.62885389
   0.87015927  0.37303977  0.62171488
   0.37428252  0.87652416  0.62231907
   0.86611665  0.87536347  0.62297900
   0.25066664 -0.00367025  0.24861933
   0.74751207  0.00726910  0.24787584
   0.24449731  0.51253966  0.25376328
   0.75350319  0.50285749  0.24303508
   0.24321898 -0.00617466  0.75889757
   0.75238475 -0.00012818  0.75636478
   0.25097078  0.50041969  0.74164773
   0.74898843  0.49576795  0.74433874
   0.12119041  0.11931266  0.11804622
   0.62468469  0.13108084  0.13305464
   0.11881401  0.63035524  0.11916250
   0.62401017  0.63358631  0.11850861
   0.12039650  0.12100302  0.62084287
   0.63056820  0.11753744  0.63242046
   0.12137429  0.62958927  0.62421748
   0.62393596  0.62028832  0.62776847
   0.24372235  0.24605473 -0.00186800
   0.74543671  0.25261408  0.00686401
   0.24701911  0.75376862  0.00363670
   0.74863233  0.75682283  0.00565357
   0.25939387  0.24952817  0.51487225
   0.75414883  0.26388565  0.50050613
   0.24852951  0.75296097  0.50394292
   0.75943619  0.75059578  0.49016210
   0.13952628  0.38210478  0.37115589
   0.62400564  0.37553477  0.37259144
   0.13002669  0.87470929  0.36637475
   0.63152523  0.87586158  0.36746822
   0.11986004  0.37707017  0.86637909
   0.62194939  0.37638797  0.87352446
   0.10246664  0.86662810  0.88202719
   0.62572259  0.88325906  0.87602567
Direct configuration=     8
  -0.00396323 -0.00819722  0.00877206
   0.50232900  0.00286170  0.00700905
   0.00022594  0.49342812 -0.00193770
   0.50056123  0.49969568  0.00472435
   0.00170999 -0.00998082  0.50323125
   0.51055804  0.00901873  0.49434032
   0.01145766  0.49741809  0.49512389
   0.50342406  0.49509093  0.49958167
   0.38480861  0.12195468  0.37429523
   0.87839675  0.13300527  0.37953639
   0.37707406  0.61683516  0.38038908
   0.88615943  0.61959986  0.37266760
   0.37821294  0.11697410  0.87968076
   0.87246297  0.12515911  0.88486899
   0.36522554  0.62789983  0.88136613
   0.87033432  0.62435871  0.86796726
   0.00410413  0.24436531  0.24514631
   0.49262602  0.24747107  0.24943305
   0.00249272  0.75094378  0.24571236
   0.50954429  0.74992629  0.26000353
  -0.00215226  0.24836964  0.74827912
   0.48983931  0.24462239  0.74555778
  -0.00568591  0.73861287  0.74525765
   0.50304372  0.75732498  0.74640294
   0.37342800  0.37889607  0.12268341
   0.87563120  0.37853862  0.11688784
   0.37993738  0.86994671  0.12911276
   0.87362357  0.87336934  0.13567395
   0.37678522  0.37222013  0.62926680
   0.87109685  0.37370495  0.62177467
   0.37445728  0.87761292  0.62193585
   0.86545095  0.87512018  0.62314478
   0.25135827 -0.00352517  0.24798794
   0.74791398  0.00847349  0.24804816
   0.24439065  0.51458143  0.25289336
   0.75375203  0.50353891  0.24196851
   0.24181035 -0.00727792  0.76016670
   0.75314162 -0.00009615  0.75748629
   0.25082600  0.50093592  0.74092049
   0.74871510  0.49518662  0.74391089
   0.12116708  0.11832397  0.11763905
   0.62427466  0.13188502  0.13374582
   0.11809897  0.63064650  0.11833976
   0.62379732  0.63433174  0.11828705
   0.12022555  0.12035583  0.62102322
   0.63136557  0.11772926  0.63291784
   0.12149295  0.62967700  0.62359774
   0.62400506  0.62033142  0.62739987
   0.24311122  0.24588919 -0.00264493
   0.74460038  0.25315249  0.00732877
   0.24613697  0.75462706  0.00401478
   0.74883049  0.75800447  0.00544433
   0.26017548  0.24886150  0.51553265
   0.75372160  0.26439615  0.50009568
   0.24853102  0.75316308  0.50392032
   0.76006198  0.75007366  0.48893870
   0.14133832  0.38152378  0.37121101
   0.62396046  0.37568504  0.37161657
   0.13038838  0.87426556  0.36583559
   0.63283336  0.87658730  0.36717496
   0.11975168  0.37718878  0.86514126
   0.62119698  0.37616360  0.87313981
   0.10019794  0.86507898  0.88248035
   0.62562875  0.88407430  0.87654832
Direct configuration=     9
  -0.00569843 -0.00889478  0.00971677
   0.50299743  0.00300326  0.00832409
   0.00027337  0.49383470 -0.00325492
   0.50047642  0.50033496  0.00448673
   0.00157493 -0.01094682  0.50256743
   0.51226493  0.00854222  0.49424002
   0.01238279  0.49670652  0.49504204
   0.50362979  0.49412151  0.50006783
   0.38440807  0.12178038  0.37467216
   0.87883379  0.13342303  0.38041118
   0.37746926  0.61711270  0.38155407
   0.88765183  0.61894207  0.37201734
   0.37760439  0.11627228  0.88020610
   0.87259664  0.12523898  0.88631187
   0.36489372  0.62803350  0.88143145
   0.86928764  0.62362060  0.86824685
   0.00482870  0.24473797  0.24452954
   0.49197366  0.24835381  0.24930843
   0.00271407  0.75078883  0.24575171
   0.50961170  0.74905938  0.26059367
  -0.00323697  0.24768260  0.74781655
   0.48982497  0.24329511  0.74607410
  -0.00734911  0.73830445  0.74452425
   0.50297346  0.75775822  0.74661560
   0.37212835  0.37916475  0.12302207
   0.87582702  0.37814119  0.11703757
   0.38077121  0.86939156  0.12992937
   0.87293453  0.87380740  0.13698563
   0.37757204  0.37298308  0.62961301
   0.87259126  0.37466978  0.62198929
   0.37472543  0.87896183  0.62160358
   0.86506012  0.87476249  0.62345510
   0.25224176 -0.00313215  0.24724579
   0.74861178  0.00968701  0.24842480
   0.24455063  0.51654730  0.25157464
   0.75389589  0.50428198  0.24096462
   0.24032982 -0.00838240  0.76133948
   0.75402839 -0.00002274  0.75860816
   0.25058870  0.50161259  0.74045698
   0.74838321  0.49467121  0.74367548
   0.12136964  0.11736067  0.11748201
   0.62375438  0.13261902  0.13420370
   0.11748593  0.63073575  0.11754931
   0.62358490  0.63485668  0.11833932
   0.12025151  0.11970667  0.62150247
   0.63212549  0.11840395  0.63317050
   0.12183798  0.62954792  0.62282694
   0.62415283  0.62066998  0.62674721
   0.24264955  0.24591075 -0.00356116
   0.74374785  0.25373149  0.00752244
   0.24515867  0.75555178  0.00429172
   0.74915049  0.75916863  0.00485618
   0.26068729  0.24797486  0.51558594
   0.75295482  0.26431703  0.49955525
   0.24864905  0.75328781  0.50366678
   0.76037083  0.74934499  0.48788588
   0.14294298  0.38037193  0.37146888
   0.62397432  0.37586932  0.37042155
   0.13060217  0.87370690  0.36559276
   0.63419152  0.87745796  0.36719689
   0.11989442  0.37720828  0.86394991
   0.62036529  0.37577967  0.87271278
   0.09842695  0.86348767  0.88267827
   0.62544393  0.88467996  0.87717404
Direct configuration=    10
  -0.00769602 -0.00945830  0.01054532
   0.50370640  0.00306256  0.00969679
   0.00029065  0.49457173 -0.00482885
   0.50029786  0.50110857  0.00399860
   0.00135122 -0.01175427  0.50163674
   0.51399425  0.00761909  0.49434051
   0.01314669  0.49586910  0.49510955
   0.50378677  0.49310873  0.50068232
   0.38356136  0.12166953  0.37519894
   0.87929198  0.13365240  0.38130074
   0.37787347  0.61778404  0.38279198
   0.88905202  0.61831567  0.37128096
   0.37667844  0.11566800  0.88070322
   0.87283823  0.12536486  0.88775351
   0.36484912  0.62812824  0.88126093
   0.86813500  0.62272834  0.86888740
   0.00558298  0.24541229  0.24400299
   0.49139728  0.24959201  0.24920488
   0.00289529  0.75054893  0.24596626
   0.50933627  0.74799359  0.26099939
  -0.00448908  0.24685481  0.74732350
   0.49020148  0.24182886  0.74690440
  -0.00921679  0.73831207  0.74376023
   0.50274023  0.75800902  0.74701244
   0.37054988  0.37939008  0.12348115
   0.87607490  0.37752284  0.11752923
   0.38162022  0.86887423  0.13081201
   0.87207726  0.87440208  0.13823038
   0.37846991  0.37399386  0.62989310
   0.87456628  0.37587974  0.62229021
   0.37507193  0.88054344  0.62133985
   0.86493280  0.87429245  0.62387959
   0.25330293 -0.00251309  0.24642694
   0.74960268  0.01095911  0.24902344
   0.24495445  0.51838666  0.24988775
   0.75394118  0.50507369  0.24004200
   0.23879344 -0.00947446  0.76240576
   0.75502189  0.00011321  0.75970011
   0.25027689  0.50244165  0.74026888
   0.74798061  0.49423565  0.74363295
   0.12178724  0.11643235  0.11753380
   0.62313678  0.13327789  0.13443738
   0.11696518  0.63063455  0.11678661
   0.62340144  0.63517119  0.11863418
   0.12045391  0.11904167  0.62227081
   0.63286923  0.11954061  0.63318738
   0.12237488  0.62922159  0.62192378
   0.62438328  0.62129588  0.62581462
   0.24233190  0.24612214 -0.00459460
   0.74288683  0.25435040  0.00743844
   0.24411796  0.75651983  0.00445779
   0.74957421  0.76027980  0.00393009
   0.26094422  0.24689357  0.51507242
   0.75191784  0.26371388  0.49895389
   0.24890231  0.75335635  0.50319755
   0.76038891  0.74841395  0.48701206
   0.14435874  0.37870149  0.37188327
   0.62405077  0.37609784  0.36901372
   0.13069300  0.87306625  0.36562183
   0.63558605  0.87843329  0.36749361
   0.12026599  0.37711869  0.86279267
   0.61945811  0.37524155  0.87225426
   0.09713668  0.86188767  0.88263360
   0.62517218  0.88507656  0.87787473
Direct configuration=    11
  -0.00985638 -0.00989592  0.01123955
   0.50442588  0.00304479  0.01111002
   0.00025555  0.49558353 -0.00662129
   0.50000429  0.50197092  0.00329373
   0.00105554 -0.01238476  0.50049413
   0.51570157  0.00630686  0.49464311
   0.01378649  0.49490199  0.49529521
   0.50391588  0.49208960  0.50138723
   0.38235189  0.12160988  0.37586921
   0.87979798  0.13370886  0.38216790
   0.37826355  0.61880277  0.38407241
   0.89033158  0.61769761  0.37048825
   0.37546022  0.11513882  0.88118789
   0.87316040  0.12555438  0.88917629
   0.36506946  0.62822129  0.88086801
   0.86688097  0.62171404  0.86986518
   0.00636080  0.24634705  0.24360399
   0.49084744  0.25115217  0.24915144
   0.00303680  0.75023333  0.24633185
   0.50877111  0.74678302  0.26127423
  -0.00586363  0.24589876  0.74683923
   0.49092862  0.24026499  0.74801365
  -0.01125499  0.73856357  0.74296793
   0.50233532  0.75808231  0.74757461
   0.36872800  0.37960363  0.12400675
   0.87639315  0.37672806  0.11830916
   0.38245352  0.86840224  0.13172579
   0.87105089  0.87511917  0.13941032
   0.37944195  0.37515519  0.63011938
   0.87690376  0.37725576  0.62260578
   0.37547858  0.88230281  0.62115825
   0.86504348  0.87371316  0.62438311
   0.25450865 -0.00170815  0.24557938
   0.75085057  0.01231772  0.24985064
   0.24557838  0.52002508  0.24794335
   0.75391003  0.50589295  0.23921619
   0.23723084 -0.01053168  0.76335029
   0.75608386  0.00032377  0.76073003
   0.24991683  0.50340659  0.74034306
   0.74749393  0.49388185  0.74377459
   0.12240200  0.11556613  0.11775650
   0.62244465  0.13386998  0.13447490
   0.11653719  0.63037000  0.11604406
   0.62327668  0.63529081  0.11911960
   0.12080535  0.11834272  0.62330756
   0.63361523  0.12110140  0.63298209
   0.12305711  0.62874597  0.62091987
   0.62470165  0.62219488  0.62462368
   0.24214708  0.24651376 -0.00571759
   0.74202993  0.25501578  0.00708594
   0.24305453  0.75750388  0.00450598
   0.75008341  0.76130568  0.00271885
   0.26098019  0.24565444  0.51406364
   0.75068389  0.26267453  0.49835095
   0.24931102  0.75339516  0.50253732
   0.76013553  0.74728898  0.48633376
   0.14560103  0.37660410  0.37237260
   0.62419301  0.37637998  0.36740671
   0.13069333  0.87238664  0.36588085
   0.63698870  0.87944889  0.36800780
   0.12084327  0.37691064  0.86166291
   0.61847370  0.37455953  0.87177413
   0.09629380  0.86033146  0.88236745
   0.62481489  0.88526663  0.87862062
Direct configuration=    12
  -0.01210221 -0.01023261  0.01179871
   0.50511386  0.00295126  0.01253681
   0.00014956  0.49679445 -0.00858511
   0.49957976  0.50286958  0.00240215
   0.00071489 -0.01283584  0.49919335
   0.51733976  0.00468923  0.49514608
   0.01433925  0.49381661  0.49556218
   0.50405576  0.49110258  0.50213045
   0.38089475  0.12158682  0.37666643
   0.88037069  0.13361424  0.38297927
   0.37863850  0.62011309  0.38536163
   0.89145798  0.61707428  0.36967247
   0.37397868  0.11465115  0.88167720
   0.87353618  0.12582457  0.89056417
   0.36553074  0.62835895  0.88027785
   0.86553311  0.62062091  0.87112564
   0.00716614  0.24749197  0.24336875
   0.49028537  0.25296184  0.24916963
   0.00314503  0.74985871  0.24681665
   0.50797749  0.74550043  0.26147575
  -0.00729916  0.24483154  0.74639976
   0.49195382  0.23864832  0.74936192
  -0.01342477  0.73896712  0.74215310
   0.50176046  0.75799156  0.74826963
   0.36670038  0.37984092  0.12454031
   0.87680365  0.37581353  0.11931224
   0.38326343  0.86796966  0.13264631
   0.86986536  0.87590648  0.14052554
   0.38044468  0.37635050  0.63031781
   0.87945729  0.37872720  0.62287337
   0.37592730  0.88418738  0.62108165
   0.86536035  0.87304545  0.62491846
   0.25581670 -0.00077535  0.24475711
   0.75228858  0.01377483  0.25088934
   0.24638883  0.52140454  0.24586441
   0.75383563  0.50671471  0.23850014
   0.23566744 -0.01155040  0.76416422
   0.75717057  0.00062844  0.76166400
   0.24953872  0.50448347  0.74066688
   0.74691713  0.49362431  0.74407604
   0.12317445  0.11478980  0.11810372
   0.62169986  0.13441735  0.13434721
   0.11619071  0.62997195  0.11531708
   0.62323226  0.63524370  0.11973727
   0.12126876  0.11759880  0.62456811
   0.63438081  0.12300999  0.63256999
   0.12383025  0.62816987  0.61985026
   0.62510636  0.62334464  0.62320468
   0.24207713  0.24707515 -0.00688503
   0.74118940  0.25572081  0.00648199
   0.24202271  0.75847434  0.00443186
   0.75064724  0.76220335  0.00130220
   0.26083413  0.24430930  0.51265474
   0.74932631  0.26130914  0.49780489
   0.24988940  0.75343753  0.50173124
   0.75965776  0.74599296  0.48586921
   0.14667687  0.37418217  0.37285957
   0.62440304  0.37673141  0.36563188
   0.13064464  0.87171100  0.36631540
   0.63835401  0.88044051  0.36868388
   0.12158352  0.37657346  0.86054661
   0.61743268  0.37375564  0.87127738
   0.09584896  0.85887737  0.88190423
   0.62438705  0.88526332  0.87936932
Direct configuration=    13
  -0.01429839 -0.01048743  0.01221037
   0.50571666  0.00277236  0.01394366
  -0.00003484  0.49810817 -0.01065368
   0.49901506  0.50376908  0.00135869
   0.00035112 -0.01310789  0.49779581
   0.51885576  0.00287323  0.49584571
   0.01484640  0.49262549  0.49585459