       N       E                     dE             d eps       ncg     rms          rms(c)
RMM:   1    -0.358164288597E+03   -0.35816E+03   -0.20593E+01   322   0.564E+00    0.540E+00
RMM:   2    -0.356739701363E+03    0.14246E+01   -0.15138E+00   322   0.170E+00    0.303E+00
RMM:   3    -0.356526724759E+03    0.21298E+00   -0.23668E+00   322   0.152E+00    0.877E-01
RMM:   4    -0.356502750332E+03    0.23974E-01   -0.12188E-01   322   0.524E-01    0.532E-01
RMM:   5    -0.356500874472E+03    0.18759E-02   -0.20149E-02   324   0.163E-01    0.988E-02
RMM:   6    -0.356500418602E+03    0.45587E-03   -0.11937E-03   326   0.502E-02    0.497E-02
RMM:   7    -0.356500357254E+03    0.61348E-04   -0.87903E-04   322   0.317E-02    0.185E-02
RMM:   8    -0.356500337126E+03    0.20127E-04   -0.64497E-05   321   0.110E-02    0.811E-03
RMM:   9    -0.356500336969E+03    0.15722E-06   -0.81748E-06   299   0.394E-03
    1 T=   445. E= -.35287405E+03 F= -.35650034E+03 E0= -.35648835E+03  EK= 0.36263E+01 SP= 0.00E+00 SK= 0.00E+00
       N       E                     dE             d eps       ncg     rms          rms(c)
RMM:   1    -0.356319774648E+03    0.18056E+00   -0.54441E+00   322   0.380E+00    0.701E-01
RMM:   2    -0.356328479009E+03   -0.87044E-02   -0.15341E-01   325   0.639E-01    0.518E-01
RMM:   3    -0.356324361241E+03    0.41178E-02   -0.10723E-02   325   0.176E-01    0.301E-01
RMM:   4    -0.356323731593E+03    0.62965E-03   -0.70644E-03   322   0.103E-01    0.615E-02
RMM:   5    -0.356323590885E+03    0.14071E-03   -0.33786E-04   325   0.297E-02    0.166E-02
RMM:   6    -0.356323584667E+03    0.62171E-05   -0.88909E-05   326   0.104E-02    0.548E-03
RMM:   7    -0.356323584640E+03    0.27158E-07   -0.80963E-06   283   0.369E-03
    2 T=   425. E= -.35287270E+03 F= -.35632358E+03 E0= -.35631203E+03  EK= 0.34578E+01 SP= -.95E-02 SK= 0.26E-02
       N       E                     dE             d eps       ncg     rms          rms(c)
RMM:   1    -0.356199539789E+03    0.12404E+00   -0.29266E-01   322   0.886E-01    0.158E-01
RMM:   2    -0.356199968528E+03   -0.42874E-03   -0.75258E-03   325   0.148E-01    0.120E-01
RMM:   3    -0.356199775250E+03    0.19328E-03   -0.57474E-04   327   0.413E-02    0.713E-02
RMM:   4    -0.356199741129E+03    0.34121E-04   -0.22957E-04   322   0.197E-02    0.185E-02
RMM:   5    -0.356199741337E+03   -0.20787E-06   -0.12906E-05   329   0.595E-03    0.411E-03
RMM:   6    -0.356199740468E+03    0.86962E-06   -0.43734E-06   261   0.268E-03
    3 T=   412. E= -.35287435E+03 F= -.35619974E+03 E0= -.35618970E+03  EK= 0.33530E+01 SP= -.39E-01 SK= 0.11E-01
       N       E                     dE             d eps       ncg     rms          rms(c)
RMM:   1    -0.356126124153E+03    0.73617E-01   -0.96986E-03   322   0.176E-01    0.622E-02
RMM:   2    -0.356126133351E+03   -0.91974E-05   -0.31028E-04   330   0.274E-02    0.390E-02
RMM:   3    -0.356126125642E+03    0.77093E-05   -0.62277E-05   323   0.112E-02    0.917E-03
RMM:   4    -0.356126125687E+03   -0.45722E-07   -0.40451E-06   239   0.285E-03
    4 T=   407. E= -.35287825E+03 F= -.35612613E+03 E0= -.35611780E+03  EK= 0.33105E+01 SP= -.90E-01 SK= 0.27E-01
       N       E                     dE             d eps       ncg     rms          rms(c)
RMM:   1    -0.356073162977E+03    0.52963E-01   -0.10589E-02   322   0.179E-01    0.551E-02
RMM:   2    -0.356073179427E+03   -0.16450E-04   -0.39719E-04   334   0.295E-02    0.345E-02
RMM:   3    -0.356073173286E+03    0.61405E-05   -0.63903E-05   324   0.112E-02    0.108E-02
RMM:   4    -0.356073173888E+03   -0.60177E-06   -0.52742E-06   248   0.314E-03
    5 T=   406. E= -.35287882E+03 F= -.35607317E+03 E0= -.35606628E+03  EK= 0.33070E+01 SP= -.16E+00 SK= 0.51E-01
       N       E                     dE             d eps       ncg     rms          rms(c)
RMM:   1    -0.356022813935E+03    0.50359E-01   -0.11359E-02   322   0.184E-01    0.557E-02
RMM:   2    -0.356022841083E+03   -0.27148E-04   -0.45889E-04   330   0.306E-02    0.353E-02
RMM:   3    -0.356022835482E+03    0.56015E-05   -0.63594E-05   330   0.109E-02    0.109E-02
RMM:   4    -0.356022835688E+03   -0.20604E-06   -0.52566E-06   243   0.306E-03
    6 T=   408. E= -.35288099E+03 F= -.35602284E+03 E0= -.35601733E+03  EK= 0.33199E+01 SP= -.26E+00 SK= 0.81E-01
       N       E                     dE             d eps       ncg     rms          rms(c)
RMM:   1    -0.355965526201E+03    0.57309E-01   -0.12819E-02   322   0.189E-01    0.547E-02
RMM:   2    -0.355965570718E+03   -0.44517E-04   -0.64645E-04   333   0.331E-02    0.350E-02
RMM:   3    -0.355965564510E+03    0.62079E-05   -0.72092E-05   332   0.115E-02    0.117E-02
RMM:   4    -0.355965564750E+03   -0.24029E-06   -0.57976E-06   244   0.329E-03
    7 T=   410. E= -.35288189E+03 F= -.35596556E+03 E0= -.35596150E+03  EK= 0.33425E+01 SP= -.38E+00 SK= 0.12E+00
       N       E                     dE             d eps       ncg     rms          rms(c)
RMM:   1    -0.355902731295E+03    0.62833E-01   -0.14493E-02   323   0.189E-01    0.579E-02
RMM:   2    -0.355902804288E+03   -0.72994E-04   -0.93152E-04   330   0.365E-02    0.358E-02
RMM:   3    -0.355902802071E+03    0.22172E-05   -0.95997E-05   347   0.120E-02    0.128E-02
RMM:   4    -0.355902802082E+03   -0.11009E-07   -0.49520E-06   233   0.330E-03
    8 T=   415. E= -.35288114E+03 F= -.35590280E+03 E0= -.35589965E+03  EK= 0.33771E+01 SP= -.52E+00 SK= 0.16E+00
       N       E                     dE             d eps       ncg     rms          rms(c)
RMM:   1    -0.355830799662E+03    0.72002E-01   -0.11016E-02   322   0.179E-01    0.577E-02
RMM:   2    -0.355830840333E+03   -0.40671E-04   -0.56253E-04   333   0.312E-02    0.351E-02
RMM:   3    -0.355830837652E+03    0.26811E-05   -0.62110E-05   338   0.105E-02    0.117E-02
RMM:   4    -0.355830837965E+03   -0.31383E-06   -0.44006E-06   233   0.294E-03
    9 T=   420. E= -.35288189E+03 F= -.35583084E+03 E0= -.35582751E+03  EK= 0.34171E+01 SP= -.68E+00 SK= 0.21E+00
       N       E                     dE             d eps       ncg     rms          rms(c)
RMM:   1    -0.355742348314E+03    0.88489E-01   -0.12265E-02   323   0.181E-01    0.605E-02
RMM:   2    -0.355742409339E+03   -0.61025E-04   -0.74283E-04   332   0.333E-02    0.368E-02
RMM:   3    -0.355742408892E+03    0.44693E-06   -0.73122E-05   346   0.110E-02    0.116E-02
RMM:   4    -0.355742409224E+03   -0.33174E-06   -0.36915E-06   223   0.284E-03
   10 T=   424. E= -.35288453E+03 F= -.35574241E+03 E0= -.35573797E+03  EK= 0.34546E+01 SP= -.86E+00 SK= 0.26E+00
       N       E                     dE             d eps       ncg     rms          rms(c)
RMM:   1    -0.355625640844E+03    0.11677E+00   -0.12326E-02   322   0.183E-01    0.638E-02
RMM:   2    -0.355625700827E+03   -0.59983E-04   -0.71804E-04   330   0.333E-02    0.387E-02
RMM:   3    -0.355625701092E+03   -0.26481E-06   -0.73049E-05   349   0.111E-02    0.120E-02
RMM:   4    -0.355625701474E+03   -0.38253E-06   -0.34254E-06   222   0.279E-03
   11 T=   427. E= -.35288693E+03 F= -.35562570E+03 E0= -.35561971E+03  EK= 0.34799E+01 SP= -.11E+01 SK= 0.32E+00
       N       E                     dE             d eps       ncg     rms          rms(c)
RMM:   1    -0.355467478239E+03    0.15822E+00   -0.17235E-02   322   0.200E-01    0.668E-02
RMM:   2    -0.355467576168E+03   -0.97929E-04   -0.11492E-03   328   0.399E-02    0.409E-02
RMM:   3    -0.355467576700E+03   -0.53168E-06   -0.10804E-04   344   0.132E-02    0.125E-02
RMM:   4    -0.355467577487E+03   -0.78745E-06   -0.60851E-06   248   0.353E-03
   12 T=   428. E= -.35288613E+03 F= -.35546758E+03 E0= -.35546009E+03  EK= 0.34818E+01 SP= -.13E+01 SK= 0.38E+00
       N       E                     dE             d eps       ncg     rms          rms(c)
RMM:   1    -0.355285918510E+03    0.18166E+00   -0.24281E-02   322   0.219E-01    0.641E-02
RMM:   2    -0.355286079402E+03   -0.16089E-03   -0.18473E-03   329   0.475E-02    0.399E-02
RMM:   3    -0.355286079502E+03   -0.99379E-07   -0.14959E-04   349   0.149E-02    0.143E-02
RMM:   4    -0.355286079855E+03   -0.35337E-06   -0.79559E-06   284   0.410E-03
   13 T=   427. E= -.35288415E+03 F= -.35528608E+03 E0= -.35527772E+03  EK= 0.34752E+01 SP= -.15E+01 SK= 0.45E+00
       N       E                     dE             d eps       ncg     rms          rms(c)
RMM:   1    -0.355125329113E+03    0.16075E+00   -0.33495E-02   323   0.232E-01    0.634E-02
RMM:   2    -0.355125555313E+03   -0.22620E-03   -0.25436E-03   329   0.545E-02    0.393E-02
RMM:   3    -0.355125561242E+03   -0.59284E-05   -0.21065E-04   350   0.167E-02    0.145E-02
RMM:   4    -0.355125561322E+03   -0.80381E-07   -0.10743E-05   300   0.467E-03    0.401E-03
RMM:   5    -0.355125561039E+03    0.28359E-06   -0.13434E-06   192   0.184E-03
   14 T=   430. E= -.35288252E+03 F= -.35512556E+03 E0= -.35511753E+03  EK= 0.35037E+01 SP= -.18E+01 SK= 0.52E+00
       N       E                     dE             d eps       ncg     rms          rms(c)
RMM:   1    -0.355029604596E+03    0.95957E-01   -0.25499E-02   323   0.220E-01    0.609E-02
RMM:   2    -0.355029761016E+03   -0.15642E-03   -0.17978E-03   332   0.480E-02    0.401E-02
RMM:   3    -0.355029760834E+03    0.18222E-06   -0.14542E-04   349   0.149E-02    0.147E-02
RMM:   4    -0.355029760849E+03   -0.14916E-07   -0.88104E-06   288   0.424E-03
   15 T=   444. E= -.35288030E+03 F= -.35502976E+03 E0= -.35502335E+03  EK= 0.36148E+01 SP= -.21E+01 SK= 0.59E+00
       N       E                     dE             d eps       ncg     rms          rms(c)
RMM:   1    -0.355026931268E+03    0.28296E-02   -0.27578E-02   323   0.226E-01    0.604E-02
RMM:   2    -0.355027141242E+03   -0.20997E-03   -0.23523E-03   331   0.526E-02    0.383E-02
RMM:   3    -0.355027145434E+03   -0.41916E-05   -0.17610E-04   351   0.155E-02    0.169E-02
RMM:   4    -0.355027145072E+03    0.36195E-06   -0.10172E-05   320   0.473E-03    0.419E-03
RMM:   5    -0.355027144942E+03    0.13004E-06   -0.88248E-07   192   0.155E-03
   16 T=   471. E= -.35288254E+03 F= -.35502714E+03 E0= -.35502297E+03  EK= 0.38378E+01 SP= -.24E+01 SK= 0.66E+00
       N       E                     dE             d eps       ncg     rms          rms(c)
RMM:   1    -0.355104637117E+03   -0.77492E-01   -0.25474E-02   323   0.230E-01    0.703E-02
RMM:   2    -0.355104807619E+03   -0.17050E-03   -0.20044E-03   336   0.506E-02    0.409E-02
RMM:   3    -0.355104808810E+03   -0.11913E-05   -0.15319E-04   348   0.150E-02    0.171E-02
RMM:   4    -0.355104809064E+03   -0.25408E-06   -0.10504E-05   314   0.477E-03    0.429E-03
RMM:   5    -0.355104809043E+03    0.21202E-07   -0.11553E-06   192   0.171E-03
   17 T=   512. E= -.35288438E+03 F= -.35510481E+03 E0= -.35510247E+03  EK= 0.41705E+01 SP= -.27E+01 SK= 0.72E+00
       N       E                     dE             d eps       ncg     rms          rms(c)
RMM:   1    -0.355221639230E+03   -0.11683E+00   -0.24254E-02   323   0.237E-01    0.823E-02
RMM:   2    -0.355221757976E+03   -0.11875E-03   -0.15051E-03   335   0.475E-02    0.496E-02
RMM:   3    -0.355221755217E+03    0.27584E-05   -0.13618E-04   343   0.148E-02    0.174E-02
RMM:   4    -0.355221755568E+03   -0.35045E-06   -0.90176E-06   299   0.437E-03
   18 T=   561. E= -.35289128E+03 F= -.35522176E+03 E0= -.35522041E+03  EK= 0.45705E+01 SP= -.30E+01 SK= 0.75E+00
       N       E                     dE             d eps       ncg     rms          rms(c)
RMM:   1    -0.355302633988E+03   -0.80879E-01   -0.21212E-02   323   0.237E-01    0.721E-02
RMM:   2    -0.355302734899E+03   -0.10091E-03   -0.12618E-03   336   0.445E-02    0.442E-02
RMM:   3    -0.355302732290E+03    0.26092E-05   -0.11388E-04   346   0.139E-02    0.175E-02
RMM:   4    -0.355302733090E+03   -0.80029E-06   -0.84129E-06   306   0.421E-03
   19 T=   610. E= -.35289800E+03 F= -.35530273E+03 E0= -.35530168E+03  EK= 0.49656E+01 SP= -.33E+01 SK= 0.75E+00
       N       E                     dE             d eps       ncg     rms          rms(c)
RMM:   1    -0.355282303788E+03    0.20429E-01   -0.20835E-02   322   0.239E-01    0.735E-02
RMM:   2    -0.355282399308E+03   -0.95519E-04   -0.11991E-03   334   0.431E-02    0.445E-02
RMM:   3    -0.355282396430E+03    0.28778E-05   -0.11878E-04   346   0.141E-02    0.165E-02
RMM:   4    -0.355282396951E+03   -0.52082E-06   -0.72308E-06   272   0.385E-03
   20 T=   649. E= -.35290425E+03 F= -.35528240E+03 E0= -.35528094E+03  EK= 0.52826E+01 SP= -.36E+01 SK= 0.73E+00
       N       E                     dE             d eps       ncg     rms          rms(c)
RMM:   1    -0.355116296992E+03    0.16610E+00   -0.20453E-02   322   0.243E-01    0.728E-02
RMM:   2    -0.355116378028E+03   -0.81036E-04   -0.10427E-03   332   0.423E-02    0.464E-02
RMM:   3    -0.355116373695E+03    0.43332E-05   -0.10901E-04   344   0.141E-02    0.165E-02
RMM:   4    -0.355116374438E+03   -0.74336E-06   -0.79520E-06   277   0.384E-03
   21 T=   672. E= -.35290308E+03 F= -.35511637E+03 E0= -.35511342E+03  EK= 0.54714E+01 SP= -.40E+01 SK= 0.70E+00
       N       E                     dE             d eps       ncg     rms          rms(c)
RMM:   1    -0.354824204197E+03    0.29217E+00   -0.23479E-02   322   0.254E-01    0.819E-02
RMM:   2    -0.354824303421E+03   -0.99224E-04   -0.13026E-03   333   0.460E-02    0.502E-02
RMM:   3    -0.354824297205E+03    0.62159E-05   -0.13305E-04   342   0.153E-02    0.171E-02
RMM:   4    -0.354824297417E+03   -0.21126E-06   -0.10024E-05   296   0.428E-03    0.506E-03
RMM:   5    -0.354824297155E+03    0.26143E-06   -0.25169E-06   209   0.221E-03
   22 T=   679. E= -.35290574E+03 F= -.35482430E+03 E0= -.35481809E+03  EK= 0.55278E+01 SP= -.43E+01 SK= 0.65E+00
       N       E                     dE             d eps       ncg     rms          rms(c)
RMM:   1    -0.354448829603E+03    0.37547E+00   -0.26744E-02   322   0.268E-01    0.792E-02
RMM:   2    -0.354448956520E+03   -0.12692E-03   -0.16499E-03   336   0.501E-02    0.500E-02
RMM:   3    -0.354448950907E+03    0.56126E-05   -0.14973E-04   340   0.161E-02    0.186E-02
RMM:   4    -0.354448951556E+03   -0.64888E-06   -0.11935E-05   333   0.477E-03    0.553E-03
RMM:   5    -0.354448951295E+03    0.26132E-06   -0.22920E-06   205   0.210E-03
   23 T=   674. E= -.35290580E+03 F= -.35444895E+03 E0= -.35443734E+03  EK= 0.54922E+01 SP= -.46E+01 SK= 0.61E+00
       N       E                     dE             d eps       ncg     rms          rms(c)
RMM:   1    -0.354047208519E+03    0.40174E+00   -0.29771E-02   323   0.271E-01    0.853E-02
RMM:   2    -0.354047375382E+03   -0.16686E-03   -0.20334E-03   339   0.534E-02    0.530E-02
RMM:   3    -0.354047374283E+03    0.10986E-05   -0.17741E-04   345   0.167E-02    0.192E-02
RMM:   4    -0.354047375062E+03   -0.77914E-06   -0.11431E-05   329   0.475E-03    0.543E-03
RMM:   5    -0.354047374689E+03    0.37322E-06   -0.21111E-06   201   0.202E-03
   24 T=   666. E= -.35290244E+03 F= -.35404737E+03 E0= -.35402911E+03  EK= 0.54195E+01 SP= -.48E+01 SK= 0.57E+00
       N       E                     dE             d eps       ncg     rms          rms(c)
RMM:   1    -0.353665212963E+03    0.38216E+00   -0.35971E-02   322   0.269E-01    0.853E-02
RMM:   2    -0.353665460685E+03   -0.24772E-03   -0.29194E-03   335   0.592E-02    0.499E-02
RMM:   3    -0.353665466707E+03   -0.60221E-05   -0.24041E-04   346   0.183E-02    0.186E-02
RMM:   4    -0.353665467532E+03   -0.82446E-06   -0.12642E-05   329   0.521E-03    0.552E-03
RMM:   5    -0.353665467115E+03    0.41659E-06   -0.16697E-06   193   0.195E-03
   25 T=   657. E= -.35289974E+03 F= -.35366547E+03 E0= -.35364164E+03  EK= 0.53520E+01 SP= -.51E+01 SK= 0.54E+00
       N       E                     dE             d eps       ncg     rms          rms(c)
RMM:   1    -0.353320033742E+03    0.34543E+00   -0.32663E-02   322   0.261E-01    0.824E-02
RMM:   2    -0.353320255365E+03   -0.22162E-03   -0.27521E-03   337   0.576E-02    0.465E-02
RMM:   3    -0.353320257798E+03   -0.24324E-05   -0.23553E-04   345   0.180E-02    0.178E-02
RMM:   4    -0.353320258823E+03   -0.10256E-05   -0.14172E-05   338   0.531E-03    0.551E-03
RMM:   5    -0.353320258405E+03    0.41794E-06   -0.19098E-06   195   0.205E-03
   26 T=   652. E= -.35289871E+03 F= -.35332026E+03 E0= -.35329388E+03  EK= 0.53082E+01 SP= -.54E+01 SK= 0.52E+00
       N       E                     dE             d eps       ncg     rms          rms(c)
RMM:   1    -0.352996927431E+03    0.32333E+00   -0.36280E-02   322   0.270E-01    0.835E-02
RMM:   2    -0.352997171212E+03   -0.24378E-03   -0.28458E-03   334   0.599E-02    0.527E-02
RMM:   3    -0.352997175622E+03   -0.44098E-05   -0.23030E-04   350   0.183E-02    0.208E-02
RMM:   4    -0.352997176899E+03   -0.12776E-05   -0.13912E-05   334   0.537E-03    0.520E-03
RMM:   5    -0.352997176691E+03    0.20809E-06   -0.16606E-06   192   0.197E-03
   27 T=   648. E= -.35289786E+03 F= -.35299718E+03 E0= -.35297174E+03  EK= 0.52770E+01 SP= -.57E+01 SK= 0.49E+00
       N       E                     dE             d eps       ncg     rms          rms(c)
RMM:   1    -0.352672003946E+03    0.32517E+00   -0.35825E-02   322   0.282E-01    0.785E-02
RMM:   2    -0.352672209001E+03   -0.20505E-03   -0.24847E-03   333   0.585E-02    0.494E-02
RMM:   3    -0.352672207560E+03    0.14410E-05   -0.21369E-04   350   0.182E-02    0.202E-02
RMM:   4    -0.352672208784E+03   -0.12240E-05   -0.15334E-05   335   0.553E-03    0.561E-03
RMM:   5    -0.352672208811E+03   -0.26932E-07   -0.17407E-06   194   0.203E-03
   28 T=   643. E= -.35289562E+03 F= -.35267221E+03 E0= -.35265072E+03  EK= 0.52367E+01 SP= -.59E+01 SK= 0.47E+00
       N       E                     dE             d eps       ncg     rms          rms(c)
RMM:   1    -0.352347553388E+03    0.32466E+00   -0.42235E-02   322   0.298E-01    0.856E-02
RMM:   2    -0.352347816175E+03   -0.26279E-03   -0.32340E-03   332   0.638E-02    0.520E-02
RMM:   3    -0.352347814577E+03    0.15974E-05   -0.27055E-04   346   0.202E-02    0.206E-02
RMM:   4    -0.352347815714E+03   -0.11364E-05   -0.19200E-05   341   0.612E-03    0.624E-03
RMM:   5    -0.352347815694E+03    0.19456E-07   -0.21705E-06   198   0.222E-03
   29 T=   636. E= -.35289950E+03 F= -.35234782E+03 E0= -.35233192E+03  EK= 0.51821E+01 SP= -.62E+01 SK= 0.45E+00
       N       E                     dE             d eps       ncg     rms          rms(c)
RMM:   1    -0.352025545215E+03    0.32227E+00   -0.46994E-02   323   0.301E-01    0.860E-02
RMM:   2    -0.352025861654E+03   -0.31644E-03   -0.38077E-03   331   0.668E-02    0.523E-02
RMM:   3    -0.352025868256E+03   -0.66016E-05   -0.30821E-04   356   0.207E-02    0.211E-02
RMM:   4    -0.352025869315E+03   -0.10590E-05   -0.15652E-05   334   0.586E-03    0.609E-03
RMM:   5    -0.352025869480E+03   -0.16457E-06   -0.15650E-06   193   0.200E-03
   30 T=   630. E= -.35289796E+03 F= -.35202587E+03 E0= -.35201499E+03  EK= 0.51269E+01 SP= -.64E+01 SK= 0.43E+00
       N       E                     dE             d eps       ncg     rms          rms(c)
RMM:   1    -0.351733480033E+03    0.29239E+00   -0.53374E-02   326   0.305E-01    0.903E-02
RMM:   2    -0.351733810441E+03   -0.33041E-03   -0.39571E-03   336   0.693E-02    0.547E-02
RMM:   3    -0.351733818823E+03   -0.83823E-05   -0.30811E-04   354   0.208E-02    0.214E-02
RMM:   4    -0.351733819035E+03   -0.21152E-06   -0.14705E-05   334   0.581E-03    0.551E-03
RMM:   5    -0.351733818918E+03    0.11682E-06   -0.15265E-06   192   0.196E-03
   31 T=   625. E= -.35290006E+03 F= -.35173382E+03 E0= -.35172517E+03  EK= 0.50911E+01 SP= -.67E+01 SK= 0.42E+00
       N       E                     dE             d eps       ncg     rms          rms(c)
RMM:   1    -0.351480667297E+03    0.25315E+00   -0.59140E-02   325   0.311E-01    0.843E-02
RMM:   2    -0.351481089954E+03   -0.42266E-03   -0.48973E-03   337   0.744E-02    0.515E-02
RMM:   3    -0.351481104930E+03   -0.14976E-04   -0.36806E-04   355   0.218E-02    0.223E-02
RMM:   4    -0.351481105325E+03   -0.39479E-06   -0.17524E-05   327   0.634E-03    0.538E-03
RMM:   5    -0.351481105346E+03   -0.20886E-07   -0.14398E-06   195   0.202E-03
   32 T=   625. E= -.35290197E+03 F= -.35148111E+03 E0= -.35147034E+03  EK= 0.50897E+01 SP= -.69E+01 SK= 0.41E+00
       N       E                     dE             d eps       ncg     rms          rms(c)
RMM:   1    -0.351271002001E+03    0.21010E+00   -0.48269E-02   324   0.310E-01    0.898E-02
RMM:   2    -0.351271310023E+03   -0.30802E-03   -0.37235E-03   334   0.693E-02    0.533E-02
RMM:   3    -0.351271315891E+03   -0.58689E-05   -0.29424E-04   358   0.206E-02    0.221E-02
RMM:   4    -0.351271316153E+03   -0.26154E-06   -0.15657E-05   326   0.602E-03    0.543E-03
RMM:   5    -0.351271316108E+03    0.44878E-07   -0.13854E-06   195   0.196E-03
   33 T=   630. E= -.35290457E+03 F= -.35127132E+03 E0= -.35125409E+03  EK= 0.51275E+01 SP= -.72E+01 SK= 0.39E+00
       N       E                     dE             d eps       ncg     rms          rms(c)
RMM:   1    -0.351092185976E+03    0.17913E+00   -0.38339E-02   322   0.304E-01    0.888E-02
RMM:   2    -0.351092425659E+03   -0.23968E-03   -0.30871E-03   332   0.620E-02    0.537E-02
RMM:   3    -0.351092426520E+03   -0.86037E-06   -0.27341E-04   352   0.196E-02    0.216E-02
RMM:   4    -0.351092427468E+03   -0.94799E-06   -0.16916E-05   335   0.589E-03    0.599E-03
RMM:   5    -0.351092427383E+03    0.84383E-07   -0.16066E-06   193   0.207E-03
   34 T=   638. E= -.35290712E+03 F= -.35109243E+03 E0= -.35106631E+03  EK= 0.51943E+01 SP= -.74E+01 SK= 0.38E+00
       N       E                     dE             d eps       ncg     rms          rms(c)
RMM:   1    -0.350936459578E+03    0.15597E+00   -0.33887E-02   322   0.298E-01    0.939E-02
RMM:   2    -0.350936630776E+03   -0.17120E-03   -0.23936E-03   333   0.572E-02    0.565E-02
RMM:   3    -0.350936628882E+03    0.18936E-05   -0.22641E-04   353   0.187E-02    0.207E-02
RMM:   4    -0.350936629786E+03   -0.90426E-06   -0.14215E-05   334   0.543E-03    0.578E-03
RMM:   5    -0.350936629680E+03    0.10616E-06   -0.16306E-06   193   0.202E-03
   35 T=   649. E= -.35291041E+03 F= -.35093663E+03 E0= -.35090040E+03  EK= 0.52814E+01 SP= -.76E+01 SK= 0.36E+00
       N       E                     dE             d eps       ncg     rms          rms(c)
RMM:   1    -0.350795594372E+03    0.14104E+00   -0.37656E-02   323   0.304E-01    0.102E-01
RMM:   2    -0.350795816924E+03   -0.22255E-03   -0.28795E-03   340   0.606E-02    0.592E-02
RMM:   3    -0.350795817327E+03   -0.40285E-06   -0.23623E-04   349   0.192E-02    0.208E-02
RMM:   4    -0.350795818495E+03   -0.11686E-05   -0.14447E-05   336   0.555E-03    0.574E-03
RMM:   5    -0.350795818325E+03    0.17050E-06   -0.19334E-06   195   0.211E-03
   36 T=   661. E= -.35291472E+03 F= -.35079582E+03 E0= -.35074875E+03  EK= 0.53796E+01 SP= -.78E+01 SK= 0.33E+00
       N       E                     dE             d eps       ncg     rms          rms(c)
RMM:   1    -0.350656511685E+03    0.13931E+00   -0.47657E-02   322   0.320E-01    0.100E-01
RMM:   2    -0.350656844803E+03   -0.33312E-03   -0.39853E-03   334   0.690E-02    0.620E-02
RMM:   3    -0.350656855847E+03   -0.11044E-04   -0.32079E-04   358   0.211E-02    0.238E-02
RMM:   4    -0.350656857169E+03   -0.13217E-05   -0.14572E-05   332   0.577E-03    0.616E-03
RMM:   5    -0.350656857095E+03    0.73600E-07   -0.14370E-06   192   0.195E-03
   37 T=   673. E= -.35291631E+03 F= -.35065686E+03 E0= -.35060003E+03  EK= 0.54780E+01 SP= -.80E+01 SK= 0.31E+00
       N       E                     dE             d eps       ncg     rms          rms(c)
RMM:   1    -0.350528764650E+03    0.12809E+00   -0.50454E-02   322   0.326E-01    0.990E-02
RMM:   2    -0.350529110124E+03   -0.34547E-03   -0.43374E-03   337   0.705E-02    0.572E-02
RMM:   3    -0.350529118710E+03   -0.85864E-05   -0.34192E-04   358   0.220E-02    0.231E-02
RMM:   4    -0.350529119618E+03   -0.90810E-06   -0.17128E-05   340   0.609E-03    0.672E-03
RMM:   5    -0.350529119355E+03    0.26287E-06   -0.14757E-06   192   0.205E-03
   38 T=   685. E= -.35291798E+03 F= -.35052912E+03 E0= -.35046559E+03  EK= 0.55809E+01 SP= -.82E+01 SK= 0.28E+00
       N       E                     dE             d eps       ncg     rms          rms(c)
RMM:   1    -0.350438120899E+03    0.90999E-01   -0.51897E-02   323   0.331E-01    0.101E-01
RMM:   2    -0.350438509515E+03   -0.38862E-03   -0.47559E-03   333   0.719E-02    0.584E-02
RMM:   3    -0.350438520266E+03   -0.10751E-04   -0.38705E-04   362   0.228E-02    0.233E-02
RMM:   4    -0.350438520762E+03   -0.49584E-06   -0.17531E-05   338   0.611E-03    0.675E-03
RMM:   5    -0.350438520423E+03    0.33824E-06   -0.13988E-06   191   0.202E-03
   39 T=   702. E= -.35291447E+03 F= -.35043852E+03 E0= -.35037181E+03  EK= 0.57180E+01 SP= -.84E+01 SK= 0.25E+00
       N       E                     dE             d eps       ncg     rms          rms(c)
RMM:   1    -0.350432354734E+03    0.61660E-02   -0.66937E-02   324   0.354E-01    0.925E-02
RMM:   2    -0.350432842716E+03   -0.48798E-03   -0.57039E-03   336   0.805E-02    0.574E-02
RMM:   3    -0.350432854811E+03   -0.12096E-04   -0.42593E-04   359   0.244E-02    0.241E-02
RMM:   4    -0.350432855047E+03   -0.23556E-06   -0.21467E-05   337   0.683E-03    0.673E-03
RMM:   5    -0.350432854683E+03    0.36340E-06   -0.17604E-06   194   0.222E-03
   40 T=   728. E= -.35291105E+03 F= -.35043285E+03 E0= -.35036593E+03  EK= 0.59310E+01 SP= -.86E+01 SK= 0.21E+00
       N       E                     dE             d eps       ncg     rms          rms(c)
RMM:   1    -0.350564970215E+03   -0.13212E+00   -0.86673E-02   326   0.378E-01    0.101E-01
RMM:   2    -0.350565588739E+03   -0.61852E-03   -0.70352E-03   334   0.915E-02    0.619E-02
RMM:   3    -0.350565612216E+03   -0.23476E-04   -0.55015E-04   360   0.273E-02    0.257E-02
RMM:   4    -0.350565612660E+03   -0.44459E-06   -0.25350E-05   340   0.762E-03    0.644E-03
RMM:   5    -0.350565612346E+03    0.31428E-06   -0.22581E-06   200   0.242E-03
   41 T=   770. E= -.35290763E+03 F= -.35056561E+03 E0= -.35050075E+03  EK= 0.62718E+01 SP= -.88E+01 SK= 0.17E+00
       N       E                     dE             d eps       ncg     rms          rms(c)
RMM:   1    -0.350884751059E+03   -0.31914E+00   -0.10667E-01   327   0.404E-01    0.107E-01
RMM:   2    -0.350885545182E+03   -0.79412E-03   -0.89032E-03   336   0.997E-02    0.626E-02
RMM:   3    -0.350885580685E+03   -0.35503E-04   -0.66433E-04   363   0.295E-02    0.267E-02
RMM:   4    -0.350885580869E+03   -0.18354E-06   -0.27353E-05   332   0.803E-03    0.629E-03
RMM:   5    -0.350885580740E+03    0.12914E-06   -0.21674E-06   200   0.248E-03
   42 T=   833. E= -.35290251E+03 F= -.35088558E+03 E0= -.35082456E+03  EK= 0.67873E+01 SP= -.89E+01 SK= 0.12E+00
       N       E                     dE             d eps       ncg     rms          rms(c)
RMM:   1    -0.351415557579E+03   -0.52998E+00   -0.89373E-02   325   0.404E-01    0.106E-01
RMM:   2    -0.351416184703E+03   -0.62712E-03   -0.72716E-03   336   0.915E-02    0.613E-02
RMM:   3    -0.351416204395E+03   -0.19692E-04   -0.53328E-04   355   0.269E-02    0.273E-02
RMM:   4    -0.351416204220E+03    0.17464E-06   -0.27887E-05   334   0.789E-03    0.687E-03
RMM:   5    -0.351416204039E+03    0.18110E-06   -0.19932E-06   197   0.246E-03
   43 T=   918. E= -.35290945E+03 F= -.35141620E+03 E0= -.35136024E+03  EK= 0.74771E+01 SP= -.90E+01 SK= 0.66E-01
       N       E                     dE             d eps       ncg     rms          rms(c)
RMM:   1    -0.352092400115E+03   -0.67620E+00   -0.77098E-02   323   0.410E-01    0.115E-01
RMM:   2    -0.352093032226E+03   -0.63211E-03   -0.70940E-03   333   0.877E-02    0.636E-02
RMM:   3    -0.352093061817E+03   -0.29590E-04   -0.58271E-04   358   0.264E-02    0.286E-02
RMM:   4    -0.352093063071E+03   -0.12541E-05   -0.25797E-05   330   0.759E-03    0.738E-03
RMM:   5    -0.352093063310E+03   -0.23909E-06   -0.18204E-06   197   0.234E-03
   44 T=  1015. E= -.35291915E+03 F= -.35209306E+03 E0= -.35204267E+03  EK= 0.82655E+01 SP= -.91E+01 SK= 0.20E-01
       N       E                     dE             d eps       ncg     rms          rms(c)
RMM:   1    -0.352792907728E+03   -0.69984E+00   -0.68608E-02   322   0.415E-01    0.128E-01
RMM:   2    -0.352793362479E+03   -0.45475E-03   -0.51645E-03   337   0.813E-02    0.750E-02
RMM:   3    -0.352793377997E+03   -0.15518E-04   -0.40329E-04   357   0.247E-02    0.317E-02
RMM:   4    -0.352793380559E+03   -0.25623E-05   -0.20139E-05   336   0.679E-03    0.801E-03
RMM:   5    -0.352793380733E+03   -0.17354E-06   -0.18020E-06   194   0.230E-03
   45 T=  1105. E= -.35293153E+03 F= -.35279338E+03 E0= -.35274924E+03  EK= 0.89980E+01 SP= -.91E+01 SK= 0.57E-04
       N       E                     dE             d eps       ncg     rms          rms(c)
RMM:   1    -0.353365430519E+03   -0.57205E+00   -0.74984E-02   322   0.431E-01    0.136E-01
RMM:   2    -0.353365914689E+03   -0.48417E-03   -0.56340E-03   337   0.864E-02    0.790E-02
RMM:   3    -0.353365927996E+03   -0.13307E-04   -0.41668E-04   352   0.259E-02    0.337E-02
RMM:   4    -0.353365931309E+03   -0.33126E-05   -0.24324E-05   331   0.759E-03    0.835E-03
RMM:   5    -0.353365931607E+03   -0.29787E-06   -0.23638E-06   200   0.252E-03
   46 T=  1166. E= -.35293932E+03 F= -.35336593E+03 E0= -.35332883E+03  EK= 0.94951E+01 SP= -.91E+01 SK= 0.33E-01
       N       E                     dE             d eps       ncg     rms          rms(c)
RMM:   1    -0.353705229651E+03   -0.33930E+00   -0.91562E-02   323   0.451E-01    0.135E-01
RMM:   2    -0.353705869867E+03   -0.64022E-03   -0.75018E-03   332   0.955E-02    0.773E-02
RMM:   3    -0.353705889114E+03   -0.19247E-04   -0.59080E-04   357   0.292E-02    0.326E-02
RMM:   4    -0.353705891672E+03   -0.25575E-05   -0.29702E-05   332   0.833E-03    0.845E-03
RMM:   5    -0.353705891961E+03   -0.28929E-06   -0.30013E-06   216   0.274E-03
   47 T=  1182. E= -.35294259E+03 F= -.35370589E+03 E0= -.35367444E+03  EK= 0.96281E+01 SP= -.90E+01 SK= 0.13E+00
       N       E                     dE             d eps       ncg     rms          rms(c)
RMM:   1    -0.353780289673E+03   -0.74398E-01   -0.92623E-02   323   0.456E-01    0.140E-01
RMM:   2    -0.353780920686E+03   -0.63101E-03   -0.72703E-03   333   0.942E-02    0.831E-02
RMM:   3    -0.353780936775E+03   -0.16089E-04   -0.59982E-04   358   0.294E-02    0.317E-02
RMM:   4    -0.353780938824E+03   -0.20491E-05   -0.27721E-05   345   0.779E-03    0.838E-03
RMM:   5    -0.353780938693E+03    0.13130E-06   -0.30854E-06   215   0.274E-03
   48 T=  1151. E= -.35293417E+03 F= -.35378094E+03 E0= -.35375044E+03  EK= 0.93728E+01 SP= -.88E+01 SK= 0.30E+00
       N       E                     dE             d eps       ncg     rms          rms(c)
RMM:   1    -0.353667617552E+03    0.11332E+00   -0.10676E-01   323   0.471E-01    0.149E-01
RMM:   2    -0.353668373871E+03   -0.75632E-03   -0.87478E-03   335   0.104E-01    0.941E-02
RMM:   3    -0.353668395073E+03   -0.21202E-04   -0.67119E-04   357   0.313E-02    0.355E-02
RMM:   4    -0.353668396125E+03   -0.10522E-05   -0.30364E-05   340   0.852E-03    0.828E-03
RMM:   5    -0.353668395442E+03    0.68385E-06   -0.36211E-06   230   0.292E-03
   49 T=  1084. E= -.35292225E+03 F= -.35366840E+03 E0= -.35363350E+03  EK= 0.88248E+01 SP= -.86E+01 SK= 0.51E+00
       N       E                     dE             d eps       ncg     rms          rms(c)
RMM:   1    -0.353503745933E+03    0.16465E+00   -0.10396E-01   324   0.475E-01    0.145E-01
RMM:   2    -0.353504466760E+03   -0.72083E-03   -0.86433E-03   335   0.104E-01    0.879E-02
RMM:   3    -0.353504486379E+03   -0.19619E-04   -0.69387E-04   358   0.316E-02    0.346E-02
RMM:   4    -0.353504486969E+03   -0.58965E-06   -0.32526E-05   333   0.894E-03    0.804E-03
RMM:   5    -0.353504486366E+03    0.60295E-06   -0.35913E-06   226   0.300E-03
   50 T=  1001. E= -.35291627E+03 F= -.35350449E+03 E0= -.35346222E+03  EK= 0.81495E+01 SP= -.83E+01 SK= 0.73E+00
       N       E                     dE             d eps       ncg     rms          rms(c)
RMM:   1    -0.353395887297E+03    0.10860E+00   -0.93008E-02   322   0.466E-01    0.142E-01
RMM:   2    -0.353396486671E+03   -0.59937E-03   -0.74964E-03   331   0.979E-02    0.862E-02
RMM:   3    -0.353396501080E+03   -0.14409E-04   -0.64456E-04   357   0.305E-02    0.331E-02
RMM:   4    -0.353396502498E+03   -0.14183E-05   -0.31576E-05   343   0.861E-03    0.852E-03
RMM:   5    -0.353396502041E+03    0.45691E-06   -0.32047E-06   218   0.288E-03
   51 T=   920. E= -.35290822E+03 F= -.35339650E+03 E0= -.35334800E+03  EK= 0.74959E+01 SP= -.80E+01 SK= 0.95E+00
       N       E                     dE             d eps       ncg     rms          rms(c)
RMM:   1    -0.353411992199E+03   -0.15490E-01   -0.84135E-02   322   0.442E-01    0.134E-01
RMM:   2    -0.353412516788E+03   -0.52459E-03   -0.70685E-03   333   0.932E-02    0.784E-02
RMM:   3    -0.353412527822E+03   -0.11034E-04   -0.60757E-04   355   0.295E-02    0.315E-02
RMM:   4    -0.353412528875E+03   -0.10533E-05   -0.30332E-05   342   0.846E-03    0.901E-03
RMM:   5    -0.353412528442E+03    0.43252E-06   -0.27608E-06   207   0.273E-03
   52 T=   853. E= -.35290589E+03 F= -.35341253E+03 E0= -.35336079E+03  EK= 0.69459E+01 SP= -.76E+01 SK= 0.11E+01
       N       E                     dE             d eps       ncg     rms          rms(c)
RMM:   1    -0.353534189630E+03   -0.12166E+00   -0.74806E-02   322   0.408E-01    0.110E-01
RMM:   2    -0.353534744493E+03   -0.55486E-03   -0.64137E-03   331   0.870E-02    0.632E-02
RMM:   3    -0.353534765008E+03   -0.20515E-04   -0.48815E-04   361   0.262E-02    0.277E-02
RMM:   4    -0.353534766301E+03   -0.12928E-05   -0.21788E-05   331   0.725E-03    0.741E-03
RMM:   5    -0.353534766196E+03    0.10542E-06   -0.18443E-06   194   0.233E-03
   53 T=   797. E= -.35290810E+03 F= -.35353477E+03 E0= -.35348249E+03  EK= 0.64934E+01 SP= -.72E+01 SK= 0.13E+01
       N       E                     dE             d eps       ncg     rms          rms(c)
RMM:   1    -0.353676150109E+03   -0.14138E+00   -0.71344E-02   322   0.384E-01    0.118E-01
RMM:   2    -0.353676680477E+03   -0.53037E-03   -0.60106E-03   334   0.834E-02    0.706E-02
RMM:   3    -0.353676700628E+03   -0.20151E-04   -0.46904E-04   358   0.254E-02    0.267E-02
RMM:   4    -0.353676702868E+03   -0.22396E-05   -0.18405E-05   336   0.660E-03    0.713E-03
RMM:   5    -0.353676702940E+03   -0.72894E-07   -0.23227E-06   201   0.236E-03
   54 T=   745. E= -.35290930E+03 F= -.35367670E+03 E0= -.35362542E+03  EK= 0.60660E+01 SP= -.67E+01 SK= 0.14E+01
       N       E                     dE             d eps       ncg     rms          rms(c)
RMM:   1    -0.353746020004E+03   -0.69317E-01   -0.67039E-02   322   0.368E-01    0.105E-01
RMM:   2    -0.353746490941E+03   -0.47094E-03   -0.55093E-03   332   0.817E-02    0.619E-02
RMM:   3    -0.353746504831E+03   -0.13890E-04   -0.44543E-04   358   0.248E-02    0.255E-02
RMM:   4    -0.353746506767E+03   -0.19362E-05   -0.19448E-05   331   0.672E-03    0.709E-03
RMM:   5    -0.353746507016E+03   -0.24887E-06   -0.19976E-06   195   0.231E-03
   55 T=   686. E= -.35291055E+03 F= -.35374651E+03 E0= -.35369652E+03  EK= 0.55843E+01 SP= -.63E+01 SK= 0.15E+01
       N       E                     dE             d eps       ncg     rms          rms(c)
RMM:   1    -0.353696275178E+03    0.50232E-01   -0.54512E-02   322   0.339E-01    0.101E-01
RMM:   2    -0.353696637444E+03   -0.36227E-03   -0.44148E-03   329   0.739E-02    0.605E-02
RMM:   3    -0.353696646209E+03   -0.87656E-05   -0.38033E-04   357   0.232E-02    0.239E-02
RMM:   4    -0.353696647828E+03   -0.16182E-05   -0.17184E-05   340   0.632E-03    0.697E-03
RMM:   5    -0.353696647911E+03   -0.83295E-07   -0.18028E-06   192   0.214E-03
   56 T=   617. E= -.35290742E+03 F= -.35369665E+03 E0= -.35364798E+03  EK= 0.50241E+01 SP= -.58E+01 SK= 0.16E+01
       N       E                     dE             d eps       ncg     rms          rms(c)
RMM:   1    -0.353562014857E+03    0.13463E+00   -0.49516E-02   322   0.329E-01    0.943E-02
RMM:   2    -0.353562306288E+03   -0.29143E-03   -0.37984E-03   334   0.699E-02    0.578E-02
RMM:   3    -0.353562307831E+03   -0.15431E-05   -0.33026E-04   351   0.220E-02    0.228E-02
RMM:   4    -0.353562308233E+03   -0.40183E-06   -0.16909E-05   340   0.610E-03    0.670E-03
RMM:   5    -0.353562307991E+03    0.24262E-06   -0.16949E-06   194   0.208E-03
   57 T=   545. E= -.35289598E+03 F= -.35356231E+03 E0= -.35351493E+03  EK= 0.44411E+01 SP= -.53E+01 SK= 0.16E+01
       N       E                     dE             d eps       ncg     rms          rms(c)
RMM:   1    -0.353449741373E+03    0.11257E+00   -0.40532E-02   322   0.322E-01    0.942E-02
RMM:   2    -0.353449927992E+03   -0.18662E-03   -0.27529E-03   333   0.622E-02    0.592E-02
RMM:   3    -0.353449917662E+03    0.10330E-04   -0.27812E-04   348   0.208E-02    0.210E-02
RMM:   4    -0.353449917056E+03    0.60571E-06   -0.16122E-05   350   0.568E-03    0.718E-03
RMM:   5    -0.353449916383E+03    0.67377E-06   -0.19733E-06   197   0.210E-03
   58 T=   484. E= -.35288402E+03 F= -.35344992E+03 E0= -.35340332E+03  EK= 0.39396E+01 SP= -.49E+01 SK= 0.15E+01
       N       E                     dE             d eps       ncg     rms          rms(c)
RMM:   1    -0.353475733529E+03   -0.25816E-01   -0.40959E-02   322   0.316E-01    0.101E-01
RMM:   2    -0.353475928320E+03   -0.19479E-03   -0.28693E-03   330   0.630E-02    0.606E-02
RMM:   3    -0.353475920076E+03    0.82443E-05   -0.29436E-04   353   0.210E-02    0.206E-02
RMM:   4    -0.353475919450E+03    0.62609E-06   -0.16348E-05   343   0.576E-03    0.686E-03
RMM:   5    -0.353475918743E+03    0.70650E-06   -0.20662E-06   197   0.214E-03
   59 T=   445. E= -.35287481E+03 F= -.35347592E+03 E0= -.35343013E+03  EK= 0.36243E+01 SP= -.44E+01 SK= 0.14E+01
       N       E                     dE             d eps       ncg     rms          rms(c)
RMM:   1    -0.353714934630E+03   -0.23902E+00   -0.33407E-02   322   0.275E-01    0.822E-02
RMM:   2    -0.353715113165E+03   -0.17853E-03   -0.24541E-03   331   0.581E-02    0.480E-02
RMM:   3    -0.353715111203E+03    0.19620E-05   -0.22368E-04   358   0.183E-02    0.191E-02
RMM:   4    -0.353715110536E+03    0.66645E-06   -0.12589E-05   331   0.531E-03    0.580E-03
RMM:   5    -0.353715110016E+03    0.52068E-06   -0.12236E-06   191   0.180E-03
   60 T=   435. E= -.35287356E+03 F= -.35371511E+03 E0= -.35367182E+03  EK= 0.35457E+01 SP= -.40E+01 SK= 0.13E+01
       N       E                     dE             d eps       ncg     rms          rms(c)
RMM:   1    -0.354151439811E+03   -0.43633E+00   -0.22755E-02   322   0.235E-01    0.739E-02
RMM:   2    -0.354151566738E+03   -0.12693E-03   -0.16556E-03   332   0.476E-02    0.435E-02
RMM:   3    -0.354151567976E+03   -0.12378E-05   -0.15205E-04   357   0.150E-02    0.169E-02
RMM:   4    -0.354151568315E+03   -0.33863E-06   -0.78340E-06   301   0.428E-03
   61 T=   451. E= -.35287809E+03 F= -.35415157E+03 E0= -.35411368E+03  EK= 0.36693E+01 SP= -.36E+01 SK= 0.12E+01
       N       E                     dE             d eps       ncg     rms          rms(c)
RMM:   1    -0.354692063026E+03   -0.54050E+00   -0.25233E-02   322   0.248E-01    0.804E-02
RMM:   2    -0.354692187216E+03   -0.12419E-03   -0.17534E-03   330   0.501E-02    0.475E-02
RMM:   3    -0.354692189725E+03   -0.25089E-05   -0.16602E-04   356   0.159E-02    0.186E-02
RMM:   4    -0.354692190939E+03   -0.12142E-05   -0.90024E-06   307   0.469E-03    0.509E-03
RMM:   5    -0.354692191100E+03   -0.16080E-06   -0.10815E-06   191   0.176E-03
   62 T=   478. E= -.35288292E+03 F= -.35469219E+03 E0= -.35466267E+03  EK= 0.38934E+01 SP= -.32E+01 SK= 0.11E+01
       N       E                     dE             d eps       ncg     rms          rms(c)
RMM:   1    -0.355223926712E+03   -0.53174E+00   -0.26080E-02   322   0.260E-01    0.872E-02
RMM:   2    -0.355224005175E+03   -0.78464E-04   -0.16433E-03   330   0.499E-02    0.493E-02
RMM:   3    -0.355224000678E+03    0.44977E-05   -0.19038E-04   348   0.171E-02    0.184E-02
RMM:   4    -0.355224002293E+03   -0.16151E-05   -0.13291E-05   335   0.535E-03    0.580E-03
RMM:   5    -0.355224002755E+03   -0.46166E-06   -0.13397E-06   191   0.190E-03
   63 T=   504. E= -.35288576E+03 F= -.35522400E+03 E0= -.35520428E+03  EK= 0.41029E+01 SP= -.28E+01 SK= 0.10E+01
       N       E                     dE             d eps       ncg     rms          rms(c)
RMM:   1    -0.355660267100E+03   -0.43626E+00   -0.28966E-02   323   0.256E-01    0.803E-02
RMM:   2    -0.355660393419E+03   -0.12632E-03   -0.20071E-03   329   0.533E-02    0.470E-02
RMM:   3    -0.355660388253E+03    0.51664E-05   -0.19903E-04   351   0.177E-02    0.183E-02
RMM:   4    -0.355660389649E+03   -0.13963E-05   -0.14165E-05   335   0.553E-03    0.589E-03
RMM:   5    -0.355660390158E+03   -0.50898E-06   -0.14751E-06   191   0.200E-03
   64 T=   518. E= -.35288552E+03 F= -.35566039E+03 E0= -.35564884E+03  EK= 0.42158E+01 SP= -.24E+01 SK= 0.97E+00
       N       E                     dE             d eps       ncg     rms          rms(c)
RMM:   1    -0.355961676020E+03   -0.30129E+00   -0.29582E-02   323   0.240E-01    0.712E-02
RMM:   2    -0.355961867073E+03   -0.19105E-03   -0.22500E-03   331   0.542E-02    0.449E-02
RMM:   3    -0.355961868941E+03   -0.18677E-05   -0.17397E-04   356   0.164E-02    0.184E-02
RMM:   4    -0.355961869710E+03   -0.76949E-06   -0.10113E-05   317   0.487E-03    0.475E-03
RMM:   5    -0.355961869727E+03   -0.16920E-07   -0.12502E-06   192   0.177E-03
   65 T=   516. E= -.35288502E+03 F= -.35596187E+03 E0= -.35595470E+03  EK= 0.41983E+01 SP= -.20E+01 SK= 0.93E+00
       N       E                     dE             d eps       ncg     rms          rms(c)
RMM:   1    -0.356124568439E+03   -0.16270E+00   -0.32532E-02   325   0.231E-01    0.705E-02
RMM:   2    -0.356124782750E+03   -0.21431E-03   -0.25235E-03   332   0.572E-02    0.433E-02
RMM:   3    -0.356124788726E+03   -0.59764E-05   -0.20180E-04   354   0.174E-02    0.162E-02
RMM:   4    -0.356124789345E+03   -0.61870E-06   -0.10439E-05   312   0.505E-03    0.432E-03
RMM:   5    -0.356124789081E+03    0.26417E-06   -0.13320E-06   192   0.181E-03
   66 T=   498. E= -.35288218E+03 F= -.35612479E+03 E0= -.35611909E+03  EK= 0.40590E+01 SP= -.17E+01 SK= 0.87E+00
       N       E                     dE             d eps       ncg     rms          rms(c)
RMM:   1    -0.356170613276E+03   -0.45824E-01   -0.30086E-02   323   0.220E-01    0.665E-02
RMM:   2    -0.356170842379E+03   -0.22910E-03   -0.26103E-03   330   0.560E-02    0.383E-02
RMM:   3    -0.356170851100E+03   -0.87207E-05   -0.20222E-04   358   0.167E-02    0.145E-02
RMM:   4    -0.356170851118E+03   -0.17826E-07   -0.79526E-06   285   0.461E-03
   67 T=   470. E= -.35287891E+03 F= -.35617085E+03 E0= -.35616545E+03  EK= 0.38267E+01 SP= -.13E+01 SK= 0.81E+00
       N       E                     dE             d eps       ncg     rms          rms(c)
RMM:   1    -0.356129098876E+03    0.41752E-01   -0.21626E-02   324   0.204E-01    0.667E-02
RMM:   2    -0.356129250009E+03   -0.15113E-03   -0.17210E-03   330   0.477E-02    0.401E-02
RMM:   3    -0.356129255662E+03   -0.56521E-05   -0.14092E-04   361   0.143E-02    0.147E-02
RMM:   4    -0.356129255613E+03    0.48978E-07   -0.51706E-06   256   0.381E-03
   68 T=   434. E= -.35287547E+03 F= -.35612926E+03 E0= -.35612339E+03  EK= 0.35371E+01 SP= -.10E+01 SK= 0.73E+00
       N       E                     dE             d eps       ncg     rms          rms(c)
RMM:   1    -0.356036542914E+03    0.92713E-01   -0.20399E-02   323   0.200E-01    0.683E-02
RMM:   2    -0.356036689434E+03   -0.14652E-03   -0.16579E-03   331   0.459E-02    0.426E-02
RMM:   3    -0.356036695092E+03   -0.56580E-05   -0.13755E-04   358   0.138E-02    0.145E-02
RMM:   4    -0.356036695128E+03   -0.36154E-07   -0.45480E-06   245   0.358E-03
   69 T=   397. E= -.35287166E+03 F= -.35603670E+03 E0= -.35602882E+03  EK= 0.32308E+01 SP= -.71E+00 SK= 0.64E+00
       N       E                     dE             d eps       ncg     rms          rms(c)
RMM:   1    -0.355937657809E+03    0.99037E-01   -0.20162E-02   323   0.199E-01    0.653E-02
RMM:   2    -0.355937786554E+03   -0.12875E-03   -0.14783E-03   329   0.433E-02    0.394E-02
RMM:   3    -0.355937789955E+03   -0.34013E-05   -0.12636E-04   352   0.134E-02    0.131E-02
RMM:   4    -0.355937790029E+03   -0.73451E-07   -0.50315E-06   253   0.356E-03
   70 T=   362. E= -.35286847E+03 F= -.35593779E+03 E0= -.35592572E+03  EK= 0.29517E+01 SP= -.42E+00 SK= 0.54E+00
       N       E                     dE             d eps       ncg     rms          rms(c)
RMM:   1    -0.355883212126E+03    0.54578E-01   -0.15092E-02   322   0.188E-01    0.647E-02
RMM:   2    -0.355883294111E+03   -0.81985E-04   -0.98801E-04   329   0.377E-02    0.397E-02
RMM:   3    -0.355883293815E+03    0.29588E-06   -0.98219E-05   349   0.123E-02    0.123E-02
RMM:   4    -0.355883293861E+03   -0.45467E-07   -0.49085E-06   242   0.331E-03
   71 T=   338. E= -.35286445E+03 F= -.35588329E+03 E0= -.35586581E+03  EK= 0.27486E+01 SP= -.16E+00 SK= 0.43E+00
       N       E                     dE             d eps       ncg     rms          rms(c)
RMM:   1    -0.355922360608E+03   -0.39067E-01   -0.14487E-02   322   0.183E-01    0.562E-02
RMM:   2    -0.355922435474E+03   -0.74866E-04   -0.97522E-04   333   0.374E-02    0.351E-02
RMM:   3    -0.355922433435E+03    0.20391E-05   -0.95146E-05   347   0.122E-02    0.124E-02
RMM:   4    -0.355922433409E+03    0.25670E-07   -0.53373E-06   246   0.343E-03
   72 T=   327. E= -.35286110E+03 F= -.35592243E+03 E0= -.35590043E+03  EK= 0.26633E+01 SP= 0.71E-01 SK= 0.33E+00
       N       E                     dE             d eps       ncg     rms          rms(c)
RMM:   1    -0.356079184801E+03   -0.15675E+00   -0.12674E-02   322   0.175E-01    0.512E-02
RMM:   2    -0.356079245667E+03   -0.60866E-04   -0.85408E-04   338   0.353E-02    0.310E-02
RMM:   3    -0.356079243103E+03    0.25638E-05   -0.77401E-05   343   0.113E-02    0.122E-02
RMM:   4    -0.356079243264E+03   -0.16041E-06   -0.58178E-06   257   0.359E-03
   73 T=   333. E= -.35285880E+03 F= -.35607924E+03 E0= -.35605536E+03  EK= 0.27129E+01 SP= 0.27E+00 SK= 0.24E+00
       N       E                     dE             d eps       ncg     rms          rms(c)
RMM:   1    -0.356353709670E+03   -0.27447E+00   -0.13144E-02   322   0.175E-01    0.525E-02
RMM:   2    -0.356353783450E+03   -0.73780E-04   -0.89514E-04   333   0.358E-02    0.321E-02
RMM:   3    -0.356353783329E+03    0.12049E-06   -0.74839E-05   351   0.110E-02    0.126E-02
RMM:   4    -0.356353783520E+03   -0.19020E-06   -0.44238E-06   238   0.327E-03
   74 T=   355. E= -.35285907E+03 F= -.35635378E+03 E0= -.35633152E+03  EK= 0.28907E+01 SP= 0.44E+00 SK= 0.17E+00
       N       E                     dE             d eps       ncg     rms          rms(c)
RMM:   1    -0.356718135679E+03   -0.36435E+00   -0.14053E-02   322   0.181E-01    0.546E-02
RMM:   2    -0.356718211629E+03   -0.75950E-04   -0.91369E-04   330   0.374E-02    0.330E-02
RMM:   3    -0.356718211822E+03   -0.19342E-06   -0.80822E-05   353   0.114E-02    0.129E-02
RMM:   4    -0.356718212240E+03   -0.41730E-06   -0.46094E-06   243   0.335E-03
   75 T=   389. E= -.35286177E+03 F= -.35671821E+03 E0= -.35670090E+03  EK= 0.31653E+01 SP= 0.58E+00 SK= 0.11E+00
       N       E                     dE             d eps       ncg     rms          rms(c)
RMM:   1    -0.357118211843E+03   -0.40000E+00   -0.17091E-02   322   0.190E-01    0.579E-02
RMM:   2    -0.357118309596E+03   -0.97753E-04   -0.12814E-03   328   0.422E-02    0.353E-02
RMM:   3    -0.357118309794E+03   -0.19808E-06   -0.11565E-04   353   0.132E-02    0.140E-02
RMM:   4    -0.357118310500E+03   -0.70543E-06   -0.67653E-06   289   0.406E-03
   76 T=   427. E= -.35286804E+03 F= -.35711831E+03 E0= -.35710770E+03  EK= 0.34800E+01 SP= 0.69E+00 SK= 0.78E-01
       N       E                     dE             d eps       ncg     rms          rms(c)
RMM:   1    -0.357477360082E+03   -0.35905E+00   -0.20485E-02   323   0.196E-01    0.612E-02
RMM:   2    -0.357477483444E+03   -0.12336E-03   -0.15778E-03   329   0.460E-02    0.356E-02
RMM:   3    -0.357477484983E+03   -0.15388E-05   -0.13965E-04   355   0.144E-02    0.139E-02
RMM:   4    -0.357477485988E+03   -0.10045E-05   -0.77363E-06   302   0.437E-03    0.376E-03
RMM:   5    -0.357477486421E+03   -0.43370E-06   -0.87499E-07   192   0.155E-03
   77 T=   462. E= -.35286983E+03 F= -.35747749E+03 E0= -.35747253E+03  EK= 0.37656E+01 SP= 0.79E+00 SK= 0.54E-01
       N       E                     dE             d eps       ncg     rms          rms(c)
RMM:   1    -0.357735561614E+03   -0.25808E+00   -0.24470E-02   323   0.200E-01    0.570E-02
RMM:   2    -0.357735726837E+03   -0.16522E-03   -0.18218E-03   329   0.493E-02    0.348E-02
RMM:   3    -0.357735733082E+03   -0.62448E-05   -0.13508E-04   357   0.142E-02    0.142E-02
RMM:   4    -0.357735733478E+03   -0.39614E-06   -0.58595E-06   266   0.400E-03
   78 T=   486. E= -.35287308E+03 F= -.35773573E+03 E0= -.35773375E+03  EK= 0.39566E+01 SP= 0.87E+00 SK= 0.38E-01
       N       E                     dE             d eps       ncg     rms          rms(c)
RMM:   1    -0.357837185734E+03   -0.10145E+00   -0.26999E-02   324   0.205E-01    0.591E-02
RMM:   2    -0.357837374532E+03   -0.18880E-03   -0.20243E-03   330   0.524E-02    0.360E-02
RMM:   3    -0.357837384680E+03   -0.10148E-04   -0.15278E-04   356   0.150E-02    0.149E-02
RMM:   4    -0.357837385728E+03   -0.10475E-05   -0.65630E-06   269   0.423E-03    0.281E-03
RMM:   5    -0.357837385677E+03    0.50441E-07   -0.80688E-07   193   0.154E-03
   79 T=   492. E= -.35287335E+03 F= -.35783739E+03 E0= -.35783626E+03  EK= 0.40027E+01 SP= 0.94E+00 SK= 0.26E-01
       N       E                     dE             d eps       ncg     rms          rms(c)
RMM:   1    -0.357764862769E+03    0.72523E-01   -0.21862E-02   323   0.197E-01    0.605E-02
RMM:   2    -0.357765009150E+03   -0.14638E-03   -0.16183E-03   329   0.480E-02    0.376E-02
RMM:   3    -0.357765014222E+03   -0.50727E-05   -0.12033E-04   358   0.138E-02    0.144E-02
RMM:   4    -0.357765014608E+03   -0.38540E-06   -0.55187E-06   263   0.391E-03
   80 T=   477. E= -.35287263E+03 F= -.35776501E+03 E0= -.35776364E+03  EK= 0.38864E+01 SP= 0.99E+00 SK= 0.16E-01
       N       E                     dE             d eps       ncg     rms          rms(c)
RMM:   1    -0.357540565945E+03    0.22445E+00   -0.18909E-02   323   0.197E-01    0.581E-02
RMM:   2    -0.357540681719E+03   -0.11577E-03   -0.12883E-03   328   0.442E-02    0.347E-02
RMM:   3    -0.357540684636E+03   -0.29172E-05   -0.10590E-04   359   0.130E-02    0.142E-02
RMM:   4    -0.357540684548E+03    0.88334E-07   -0.50875E-06   254   0.373E-03
   81 T=   446. E= -.35287019E+03 F= -.35754068E+03 E0= -.35753812E+03  EK= 0.36330E+01 SP= 0.10E+01 SK= 0.76E-02
       N       E                     dE             d eps       ncg     rms          rms(c)
RMM:   1    -0.357229473473E+03    0.31121E+00   -0.15980E-02   322   0.202E-01    0.567E-02
RMM:   2    -0.357229549132E+03   -0.75660E-04   -0.93480E-04   328   0.394E-02    0.365E-02
RMM:   3    -0.357229547252E+03    0.18803E-05   -0.86659E-05   355   0.121E-02    0.146E-02
RMM:   4    -0.357229546711E+03    0.54080E-06   -0.48350E-06   243   0.344E-03
   82 T=   407. E= -.35286535E+03 F= -.35722955E+03 E0= -.35722488E+03  EK= 0.33104E+01 SP= 0.11E+01 SK= 0.12E-02
       N       E                     dE             d eps       ncg     rms          rms(c)
RMM:   1    -0.356922065307E+03    0.30748E+00   -0.16560E-02   323   0.207E-01    0.683E-02
RMM:   2    -0.356922136523E+03   -0.71215E-04   -0.95813E-04   327   0.394E-02    0.432E-02
RMM:   3    -0.356922133333E+03    0.31901E-05   -0.10091E-04   350   0.130E-02    0.140E-02
RMM:   4    -0.356922132765E+03    0.56756E-06   -0.50722E-06   242   0.344E-03
   83 T=   369. E= -.35286156E+03 F= -.35692213E+03 E0= -.35691470E+03  EK= 0.30064E+01 SP= 0.11E+01 SK= 0.97E-03
       N       E                     dE             d eps       ncg     rms          rms(c)
RMM:   1    -0.356696167144E+03    0.22597E+00   -0.16154E-02   322   0.196E-01    0.632E-02
RMM:   2    -0.356696250690E+03   -0.83546E-04   -0.10759E-03   328   0.400E-02    0.386E-02
RMM:   3    -0.356696249062E+03    0.16275E-05   -0.10142E-04   349   0.127E-02    0.139E-02
RMM:   4    -0.356696248788E+03    0.27370E-06   -0.52395E-06   249   0.357E-03
   84 T=   344. E= -.35285979E+03 F= -.35669625E+03 E0= -.35668571E+03  EK= 0.27977E+01 SP= 0.10E+01 SK= 0.11E-01
       N       E                     dE             d eps       ncg     rms          rms(c)
RMM:   1    -0.356597798923E+03    0.98450E-01   -0.16514E-02   323   0.182E-01    0.565E-02
RMM:   2    -0.356597909443E+03   -0.11052E-03   -0.12433E-03   328   0.410E-02    0.345E-02
RMM:   3    -0.356597910878E+03   -0.14350E-05   -0.96526E-05   353   0.123E-02    0.128E-02
RMM:   4    -0.356597910993E+03   -0.11554E-06   -0.48899E-06   243   0.351E-03
   85 T=   335. E= -.35286081E+03 F= -.35659791E+03 E0= -.35658445E+03  EK= 0.27297E+01 SP= 0.97E+00 SK= 0.35E-01
       N       E                     dE             d eps       ncg     rms          rms(c)
RMM:   1    -0.356628693646E+03   -0.30783E-01   -0.20251E-02   323   0.184E-01    0.573E-02
RMM:   2    -0.356628848849E+03   -0.15520E-03   -0.17148E-03   326   0.452E-02    0.349E-02
RMM:   3    -0.356628853454E+03   -0.46045E-05   -0.13432E-04   350   0.137E-02    0.121E-02
RMM:   4    -0.356628854052E+03   -0.59881E-06   -0.62940E-06   258   0.378E-03
   86 T=   344. E= -.35286562E+03 F= -.35662885E+03 E0= -.35661368E+03  EK= 0.28045E+01 SP= 0.89E+00 SK= 0.72E-01
       N       E                     dE             d eps       ncg     rms          rms(c)
RMM:   1    -0.356745901322E+03   -0.11705E+00   -0.16491E-02   322   0.185E-01    0.620E-02
RMM:   2    -0.356746006683E+03   -0.10536E-03   -0.12806E-03   329   0.409E-02    0.380E-02
RMM:   3    -0.356746006583E+03    0.10018E-06   -0.10826E-04   348   0.129E-02    0.129E-02
RMM:   4    -0.356746007476E+03   -0.89290E-06   -0.60146E-06   251   0.368E-03
   87 T=   367. E= -.35287111E+03 F= -.35674601E+03 E0= -.35673102E+03  EK= 0.29848E+01 SP= 0.77E+00 SK= 0.12E+00
       N       E                     dE             d eps       ncg     rms          rms(c)
RMM:   1    -0.356893476620E+03   -0.14747E+00   -0.19272E-02   322   0.200E-01    0.662E-02
RMM:   2    -0.356893600544E+03   -0.12392E-03   -0.14647E-03   327   0.438E-02    0.400E-02
RMM:   3    -0.356893601994E+03   -0.14494E-05   -0.12140E-04   351   0.134E-02    0.150E-02
RMM:   4    -0.356893602946E+03   -0.95247E-06   -0.70571E-06   266   0.393E-03
   88 T=   395. E= -.35287552E+03 F= -.35689360E+03 E0= -.35688077E+03  EK= 0.32190E+01 SP= 0.63E+00 SK= 0.17E+00
       N       E                     dE             d eps       ncg     rms          rms(c)
RMM:   1    -0.357016827898E+03   -0.12323E+00   -0.17751E-02   322   0.200E-01    0.638E-02
RMM:   2    -0.357016930376E+03   -0.10248E-03   -0.12059E-03   328   0.417E-02    0.391E-02
RMM:   3    -0.357016930642E+03   -0.26654E-06   -0.98743E-05   354   0.126E-02    0.157E-02
RMM:   4    -0.357016931449E+03   -0.80675E-06   -0.63146E-06   270   0.375E-03
   89 T=   424. E= -.35287608E+03 F= -.35701693E+03 E0= -.35700761E+03  EK= 0.34560E+01 SP= 0.46E+00 SK= 0.22E+00
       N       E                     dE             d eps       ncg     rms          rms(c)
RMM:   1    -0.357073803263E+03   -0.56873E-01   -0.20351E-02   324   0.201E-01    0.573E-02
RMM:   2    -0.357073942176E+03   -0.13891E-03   -0.15585E-03   328   0.458E-02    0.355E-02
RMM:   3    -0.357073945662E+03   -0.34859E-05   -0.12446E-04   358   0.135E-02    0.160E-02
RMM:   4    -0.357073946134E+03   -0.47224E-06   -0.73711E-06   294   0.416E-03
   90 T=   448. E= -.35287852E+03 F= -.35707395E+03 E0= -.35706824E+03  EK= 0.36473E+01 SP= 0.28E+00 SK= 0.27E+00
       N       E                     dE             d eps       ncg     rms          rms(c)
RMM:   1    -0.357032078136E+03    0.41868E-01   -0.23181E-02   323   0.201E-01    0.636E-02
RMM:   2    -0.357032265799E+03   -0.18766E-03   -0.20340E-03   325   0.496E-02    0.379E-02
RMM:   3    -0.357032274832E+03   -0.90329E-05   -0.17036E-04   358   0.148E-02    0.151E-02
RMM:   4    -0.357032275416E+03   -0.58409E-06   -0.64695E-06   265   0.403E-03
   91 T=   462. E= -.35287939E+03 F= -.35703228E+03 E0= -.35702902E+03  EK= 0.37607E+01 SP= 0.75E-01 SK= 0.32E+00
       N       E                     dE             d eps       ncg     rms          rms(c)
RMM:   1    -0.356886971719E+03    0.14530E+00   -0.16122E-02   322   0.188E-01    0.689E-02
RMM:   2    -0.356887067772E+03   -0.96053E-04   -0.11353E-03   329   0.407E-02    0.417E-02
RMM:   3    -0.356887068449E+03   -0.67665E-06   -0.98879E-05   356   0.125E-02    0.140E-02
RMM:   4    -0.356887068417E+03    0.31920E-07   -0.45066E-06   236   0.339E-03
   92 T=   465. E= -.35288169E+03 F= -.35688707E+03 E0= -.35688440E+03  EK= 0.37845E+01 SP= -.14E+00 SK= 0.36E+00
       N       E                     dE             d eps       ncg     rms          rms(c)
RMM:   1    -0.356640551527E+03    0.24652E+00   -0.19948E-02   324   0.196E-01    0.663E-02
RMM:   2    -0.356640702860E+03   -0.15133E-03   -0.17019E-03   331   0.456E-02    0.405E-02
RMM:   3    -0.356640708115E+03   -0.52551E-05   -0.14157E-04   356   0.137E-02    0.139E-02
RMM:   4    -0.356640708325E+03   -0.21001E-06   -0.51768E-06   243   0.362E-03
   93 T=   457. E= -.35288046E+03 F= -.35664071E+03 E0= -.35663654E+03  EK= 0.37216E+01 SP= -.38E+00 SK= 0.42E+00
       N       E                     dE             d eps       ncg     rms          rms(c)
RMM:   1    -0.356318026620E+03    0.32268E+00   -0.15981E-02   322   0.189E-01    0.634E-02
RMM:   2    -0.356318125360E+03   -0.98741E-04   -0.11898E-03   329   0.403E-02    0.380E-02
RMM:   3    -0.356318125902E+03   -0.54145E-06   -0.10564E-04   353   0.127E-02    0.132E-02
RMM:   4    -0.356318125888E+03    0.13872E-07   -0.51780E-06   243   0.351E-03
   94 T=   441. E= -.35287928E+03 F= -.35631813E+03 E0= -.35631008E+03  EK= 0.35899E+01 SP= -.63E+00 SK= 0.48E+00
       N       E                     dE             d eps       ncg     rms          rms(c)
RMM:   1    -0.355958929297E+03    0.35920E+00   -0.18801E-02   322   0.195E-01    0.615E-02
RMM:   2    -0.355959064370E+03   -0.13507E-03   -0.15543E-03   329   0.441E-02    0.374E-02
RMM:   3    -0.355959067221E+03   -0.28508E-05   -0.12692E-04   359   0.133E-02    0.140E-02
RMM:   4    -0.355959067136E+03    0.84543E-07   -0.48782E-06   238   0.358E-03
   95 T=   421. E= -.35287901E+03 F= -.35595907E+03 E0= -.35594481E+03  EK= 0.34260E+01 SP= -.90E+00 SK= 0.55E+00
       N       E                     dE             d eps       ncg     rms          rms(c)
RMM:   1    -0.355613219566E+03    0.34585E+00   -0.21452E-02   324   0.203E-01    0.625E-02
RMM:   2    -0.355613366343E+03   -0.14678E-03   -0.17069E-03   331   0.465E-02    0.389E-02
RMM:   3    -0.355613369265E+03   -0.29221E-05   -0.13869E-04   356   0.140E-02    0.149E-02
RMM:   4    -0.355613369133E+03    0.13270E-06   -0.59201E-06   256   0.388E-03
   96 T=   403. E= -.35287769E+03 F= -.35561337E+03 E0= -.35559196E+03  EK= 0.32817E+01 SP= -.12E+01 SK= 0.64E+00
       N       E                     dE             d eps       ncg     rms          rms(c)
RMM:   1    -0.355328868978E+03    0.28450E+00   -0.24715E-02   324   0.207E-01    0.596E-02
RMM:   2    -0.355329037123E+03   -0.16814E-03   -0.20375E-03   328   0.502E-02    0.349E-02
RMM:   3    -0.355329040694E+03   -0.35715E-05   -0.16698E-04   356   0.153E-02    0.147E-02
RMM:   4    -0.355329040403E+03    0.29123E-06   -0.88919E-06   312   0.453E-03
   97 T=   394. E= -.35287622E+03 F= -.35532904E+03 E0= -.35530178E+03  EK= 0.32070E+01 SP= -.15E+01 SK= 0.74E+00
       N       E                     dE             d eps       ncg     rms          rms(c)
RMM:   1    -0.355141937036E+03    0.18710E+00   -0.23356E-02   323   0.205E-01    0.589E-02
RMM:   2    -0.355142101359E+03   -0.16432E-03   -0.19803E-03   330   0.481E-02    0.349E-02
RMM:   3    -0.355142104973E+03   -0.36139E-05   -0.16187E-04   356   0.148E-02    0.144E-02
RMM:   4    -0.355142104816E+03    0.15715E-06   -0.76747E-06   294   0.425E-03
   98 T=   398. E= -.35287739E+03 F= -.35514210E+03 E0= -.35511196E+03  EK= 0.32412E+01 SP= -.18E+01 SK= 0.86E+00
       N       E                     dE             d eps       ncg     rms          rms(c)
RMM:   1    -0.355059919108E+03    0.82186E-01   -0.26254E-02   322   0.214E-01    0.662E-02
RMM:   2    -0.355060124969E+03   -0.20586E-03   -0.23026E-03   328   0.514E-02    0.395E-02
RMM:   3    -0.355060133866E+03   -0.88966E-05   -0.19120E-04   358   0.155E-02    0.158E-02
RMM:   4    -0.355060134290E+03   -0.42394E-06   -0.76421E-06   277   0.425E-03
   99 T=   418. E= -.35287903E+03 F= -.35506013E+03 E0= -.35503059E+03  EK= 0.34024E+01 SP= -.22E+01 SK= 0.97E+00
       N       E                     dE             d eps       ncg     rms          rms(c)
RMM:   1    -0.355072656344E+03   -0.12522E-01   -0.19151E-02   322   0.211E-01    0.602E-02
RMM:   2    -0.355072768815E+03   -0.11247E-03   -0.13541E-03   334   0.437E-02    0.366E-02
RMM:   3    -0.355072768510E+03    0.30478E-06   -0.11290E-04   352   0.132E-02    0.158E-02
RMM:   4    -0.355072768847E+03   -0.33691E-06   -0.73460E-06   294   0.402E-03
  100 T=   453. E= -.35288119E+03 F= -.35507277E+03 E0= -.35504670E+03  EK= 0.36894E+01 SP= -.26E+01 SK= 0.11E+01
