pristine 12x12x12 supercell (8 atom primitive cell)

13824 atoms
2 atom types

00.000 65.172 xlo xhi
00.000 65.172 ylo yhi
00.000 65.172 zlo zhi

Masses

1 28.0855
2 72.640

Atoms 

    1   1  0.000000000  0.000000000  0.000000000
    2   1  0.000000000  2.715500000  2.715500000
    3   1  2.715500000  0.000000000  2.715500000
    4   1  2.715500000  2.715500000  0.000000000
    5   1  1.357750000  1.357750000  1.357750000
    6   1  4.073250000  4.073250000  1.357750000
    7   1  1.357750000  4.073250000  4.073250000
    8   1  4.073250000  1.357750000  4.073250000
    9   2  5.431000000  0.000000000  0.000000000
   10   2  5.431000000  2.715500000  2.715500000
   11   1  8.146500000  0.000000000  2.715500000
   12   1  8.146500000  2.715500000  0.000000000
   13   1  6.788750000  1.357750000  1.357750000
   14   1  9.504250000  4.073250000  1.357750000
   15   1  6.788750000  4.073250000  4.073250000
   16   1  9.504250000  1.357750000  4.073250000
   17   1 10.862000000  0.000000000  0.000000000
   18   1 10.862000000  2.715500000  2.715500000
   19   1 13.577500000  0.000000000  2.715500000
   20   1 13.577500000  2.715500000  0.000000000
   21   1 12.219750000  1.357750000  1.357750000
   22   1 14.935250000  4.073250000  1.357750000
   23   2 12.219750000  4.073250000  4.073250000
   24   1 14.935250000  1.357750000  4.073250000
   25   1 16.293000000  0.000000000  0.000000000
   26   1 16.293000000  2.715500000  2.715500000
   27   1 19.008500000  0.000000000  2.715500000
   28   1 19.008500000  2.715500000  0.000000000
   29   1 17.650750000  1.357750000  1.357750000
   30   2 20.366250000  4.073250000  1.357750000
   31   1 17.650750000  4.073250000  4.073250000
   32   1 20.366250000  1.357750000  4.073250000
   33   1 21.724000000  0.000000000  0.000000000
   34   2 21.724000000  2.715500000  2.715500000
   35   1 24.439500000  0.000000000  2.715500000
   36   1 24.439500000  2.715500000  0.000000000
   37   1 23.081750000  1.357750000  1.357750000
   38   1 25.797250000  4.073250000  1.357750000
   39   1 23.081750000  4.073250000  4.073250000
   40   1 25.797250000  1.357750000  4.073250000
   41   1 27.155000000  0.000000000  0.000000000
   42   1 27.155000000  2.715500000  2.715500000
   43   1 29.870500000  0.000000000  2.715500000
   44   1 29.870500000  2.715500000  0.000000000
   45   1 28.512750000  1.357750000  1.357750000
   46   1 31.228250000  4.073250000  1.357750000
   47   1 28.512750000  4.073250000  4.073250000
   48   1 31.228250000  1.357750000  4.073250000
   49   1 32.586000000  0.000000000  0.000000000
   50   1 32.586000000  2.715500000  2.715500000
   51   1 35.301500000  0.000000000  2.715500000
   52   1 35.301500000  2.715500000  0.000000000
   53   1 33.943750000  1.357750000  1.357750000
   54   1 36.659250000  4.073250000  1.357750000
   55   2 33.943750000  4.073250000  4.073250000
   56   2 36.659250000  1.357750000  4.073250000
   57   1 38.017000000  0.000000000  0.000000000
   58   2 38.017000000  2.715500000  2.715500000
   59   1 40.732500000  0.000000000  2.715500000
   60   1 40.732500000  2.715500000  0.000000000
   61   1 39.374750000  1.357750000  1.357750000
   62   1 42.090250000  4.073250000  1.357750000
   63   1 39.374750000  4.073250000  4.073250000
   64   2 42.090250000  1.357750000  4.073250000
   65   1 43.448000000  0.000000000  0.000000000
   66   1 43.448000000  2.715500000  2.715500000
   67   1 46.163500000  0.000000000  2.715500000
   68   1 46.163500000  2.715500000  0.000000000
   69   1 44.805750000  1.357750000  1.357750000
   70   1 47.521250000  4.073250000  1.357750000
   71   1 44.805750000  4.073250000  4.073250000
   72   1 47.521250000  1.357750000  4.073250000
   73   1 48.879000000  0.000000000  0.000000000
   74   1 48.879000000  2.715500000  2.715500000
   75   1 51.594500000  0.000000000  2.715500000
   76   1 51.594500000  2.715500000  0.000000000
   77   2 50.236750000  1.357750000  1.357750000
   78   1 52.952250000  4.073250000  1.357750000
   79   1 50.236750000  4.073250000  4.073250000
   80   1 52.952250000  1.357750000  4.073250000
   81   1 54.310000000  0.000000000  0.000000000
   82   1 54.310000000  2.715500000  2.715500000
   83   2 57.025500000  0.000000000  2.715500000
   84   1 57.025500000  2.715500000  0.000000000
   85   1 55.667750000  1.357750000  1.357750000
   86   1 58.383250000  4.073250000  1.357750000
   87   1 55.667750000  4.073250000  4.073250000
   88   1 58.383250000  1.357750000  4.073250000
   89   1 59.741000000  0.000000000  0.000000000
   90   1 59.741000000  2.715500000  2.715500000
   91   1 62.456500000  0.000000000  2.715500000
   92   1 62.456500000  2.715500000  0.000000000
   93   1 61.098750000  1.357750000  1.357750000
   94   2 63.814250000  4.073250000  1.357750000
   95   1 61.098750000  4.073250000  4.073250000
   96   1 63.814250000  1.357750000  4.073250000
   97   1  0.000000000  5.431000000  0.000000000
   98   1  0.000000000  8.146500000  2.715500000
   99   1  2.715500000  5.431000000  2.715500000
  100   1  2.715500000  8.146500000  0.000000000
  101   1  1.357750000  6.788750000  1.357750000
  102   1  4.073250000  9.504250000  1.357750000
  103   1  1.357750000  9.504250000  4.073250000
  104   1  4.073250000  6.788750000  4.073250000
  105   1  5.431000000  5.431000000  0.000000000
  106   1  5.431000000  8.146500000  2.715500000
  107   1  8.146500000  5.431000000  2.715500000
  108   1  8.146500000  8.146500000  0.000000000
  109   1  6.788750000  6.788750000  1.357750000
  110   1  9.504250000  9.504250000  1.357750000
  111   1  6.788750000  9.504250000  4.073250000
  112   1  9.504250000  6.788750000  4.073250000
  113   1 10.862000000  5.431000000  0.000000000
  114   1 10.862000000  8.146500000  2.715500000
  115   2 13.577500000  5.431000000  2.715500000
  116   1 13.577500000  8.146500000  0.000000000
  117   1 12.219750000  6.788750000  1.357750000
  118   1 14.935250000  9.504250000  1.357750000
  119   2 12.219750000  9.504250000  4.073250000
  120   1 14.935250000  6.788750000  4.073250000
  121   1 16.293000000  5.431000000  0.000000000
  122   1 16.293000000  8.146500000  2.715500000
  123   1 19.008500000  5.431000000  2.715500000
  124   1 19.008500000  8.146500000  0.000000000
  125   1 17.650750000  6.788750000  1.357750000
  126   1 20.366250000  9.504250000  1.357750000
  127   1 17.650750000  9.504250000  4.073250000
  128   1 20.366250000  6.788750000  4.073250000
  129   1 21.724000000  5.431000000  0.000000000
  130   1 21.724000000  8.146500000  2.715500000
  131   1 24.439500000  5.431000000  2.715500000
  132   1 24.439500000  8.146500000  0.000000000
  133   1 23.081750000  6.788750000  1.357750000
  134   1 25.797250000  9.504250000  1.357750000
  135   1 23.081750000  9.504250000  4.073250000
  136   1 25.797250000  6.788750000  4.073250000
  137   1 27.155000000  5.431000000  0.000000000
  138   1 27.155000000  8.146500000  2.715500000
  139   1 29.870500000  5.431000000  2.715500000
  140   1 29.870500000  8.146500000  0.000000000
  141   1 28.512750000  6.788750000  1.357750000
  142   1 31.228250000  9.504250000  1.357750000
  143   1 28.512750000  9.504250000  4.073250000
  144   1 31.228250000  6.788750000  4.073250000
  145   1 32.586000000  5.431000000  0.000000000
  146   1 32.586000000  8.146500000  2.715500000
  147   1 35.301500000  5.431000000  2.715500000
  148   1 35.301500000  8.146500000  0.000000000
  149   1 33.943750000  6.788750000  1.357750000
  150   1 36.659250000  9.504250000  1.357750000
  151   1 33.943750000  9.504250000  4.073250000
  152   1 36.659250000  6.788750000  4.073250000
  153   1 38.017000000  5.431000000  0.000000000
  154   1 38.017000000  8.146500000  2.715500000
  155   1 40.732500000  5.431000000  2.715500000
  156   2 40.732500000  8.146500000  0.000000000
  157   1 39.374750000  6.788750000  1.357750000
  158   2 42.090250000  9.504250000  1.357750000
  159   1 39.374750000  9.504250000  4.073250000
  160   1 42.090250000  6.788750000  4.073250000
  161   1 43.448000000  5.431000000  0.000000000
  162   1 43.448000000  8.146500000  2.715500000
  163   1 46.163500000  5.431000000  2.715500000
  164   1 46.163500000  8.146500000  0.000000000
  165   1 44.805750000  6.788750000  1.357750000
  166   1 47.521250000  9.504250000  1.357750000
  167   1 44.805750000  9.504250000  4.073250000
  168   1 47.521250000  6.788750000  4.073250000
  169   1 48.879000000  5.431000000  0.000000000
  170   1 48.879000000  8.146500000  2.715500000
  171   1 51.594500000  5.431000000  2.715500000
  172   2 51.594500000  8.146500000  0.000000000
  173   1 50.236750000  6.788750000  1.357750000
  174   1 52.952250000  9.504250000  1.357750000
  175   1 50.236750000  9.504250000  4.073250000
  176   1 52.952250000  6.788750000  4.073250000
  177   1 54.310000000  5.431000000  0.000000000
  178   1 54.310000000  8.146500000  2.715500000
  179   2 57.025500000  5.431000000  2.715500000
  180   1 57.025500000  8.146500000  0.000000000
  181   1 55.667750000  6.788750000  1.357750000
  182   1 58.383250000  9.504250000  1.357750000
  183   1 55.667750000  9.504250000  4.073250000
  184   1 58.383250000  6.788750000  4.073250000
  185   1 59.741000000  5.431000000  0.000000000
  186   1 59.741000000  8.146500000  2.715500000
  187   1 62.456500000  5.431000000  2.715500000
  188   1 62.456500000  8.146500000  0.000000000
  189   1 61.098750000  6.788750000  1.357750000
  190   1 63.814250000  9.504250000  1.357750000
  191   1 61.098750000  9.504250000  4.073250000
  192   1 63.814250000  6.788750000  4.073250000
  193   1  0.000000000 10.862000000  0.000000000
  194   2  0.000000000 13.577500000  2.715500000
  195   1  2.715500000 10.862000000  2.715500000
  196   1  2.715500000 13.577500000  0.000000000
  197   1  1.357750000 12.219750000  1.357750000
  198   1  4.073250000 14.935250000  1.357750000
  199   1  1.357750000 14.935250000  4.073250000
  200   1  4.073250000 12.219750000  4.073250000
  201   1  5.431000000 10.862000000  0.000000000
  202   1  5.431000000 13.577500000  2.715500000
  203   1  8.146500000 10.862000000  2.715500000
  204   1  8.146500000 13.577500000  0.000000000
  205   1  6.788750000 12.219750000  1.357750000
  206   1  9.504250000 14.935250000  1.357750000
  207   1  6.788750000 14.935250000  4.073250000
  208   1  9.504250000 12.219750000  4.073250000
  209   1 10.862000000 10.862000000  0.000000000
  210   1 10.862000000 13.577500000  2.715500000
  211   1 13.577500000 10.862000000  2.715500000
  212   1 13.577500000 13.577500000  0.000000000
  213   1 12.219750000 12.219750000  1.357750000
  214   1 14.935250000 14.935250000  1.357750000
  215   1 12.219750000 14.935250000  4.073250000
  216   1 14.935250000 12.219750000  4.073250000
  217   1 16.293000000 10.862000000  0.000000000
  218   1 16.293000000 13.577500000  2.715500000
  219   1 19.008500000 10.862000000  2.715500000
  220   1 19.008500000 13.577500000  0.000000000
  221   1 17.650750000 12.219750000  1.357750000
  222   1 20.366250000 14.935250000  1.357750000
  223   1 17.650750000 14.935250000  4.073250000
  224   2 20.366250000 12.219750000  4.073250000
  225   1 21.724000000 10.862000000  0.000000000
  226   1 21.724000000 13.577500000  2.715500000
  227   2 24.439500000 10.862000000  2.715500000
  228   1 24.439500000 13.577500000  0.000000000
  229   2 23.081750000 12.219750000  1.357750000
  230   1 25.797250000 14.935250000  1.357750000
  231   1 23.081750000 14.935250000  4.073250000
  232   2 25.797250000 12.219750000  4.073250000
  233   1 27.155000000 10.862000000  0.000000000
  234   1 27.155000000 13.577500000  2.715500000
  235   2 29.870500000 10.862000000  2.715500000
  236   1 29.870500000 13.577500000  0.000000000
  237   1 28.512750000 12.219750000  1.357750000
  238   1 31.228250000 14.935250000  1.357750000
  239   1 28.512750000 14.935250000  4.073250000
  240   1 31.228250000 12.219750000  4.073250000
  241   1 32.586000000 10.862000000  0.000000000
  242   1 32.586000000 13.577500000  2.715500000
  243   1 35.301500000 10.862000000  2.715500000
  244   2 35.301500000 13.577500000  0.000000000
  245   1 33.943750000 12.219750000  1.357750000
  246   1 36.659250000 14.935250000  1.357750000
  247   1 33.943750000 14.935250000  4.073250000
  248   1 36.659250000 12.219750000  4.073250000
  249   1 38.017000000 10.862000000  0.000000000
  250   1 38.017000000 13.577500000  2.715500000
  251   1 40.732500000 10.862000000  2.715500000
  252   1 40.732500000 13.577500000  0.000000000
  253   1 39.374750000 12.219750000  1.357750000
  254   1 42.090250000 14.935250000  1.357750000
  255   1 39.374750000 14.935250000  4.073250000
  256   1 42.090250000 12.219750000  4.073250000
  257   1 43.448000000 10.862000000  0.000000000
  258   1 43.448000000 13.577500000  2.715500000
  259   1 46.163500000 10.862000000  2.715500000
  260   1 46.163500000 13.577500000  0.000000000
  261   1 44.805750000 12.219750000  1.357750000
  262   1 47.521250000 14.935250000  1.357750000
  263   1 44.805750000 14.935250000  4.073250000
  264   1 47.521250000 12.219750000  4.073250000
  265   1 48.879000000 10.862000000  0.000000000
  266   1 48.879000000 13.577500000  2.715500000
  267   1 51.594500000 10.862000000  2.715500000
  268   1 51.594500000 13.577500000  0.000000000
  269   1 50.236750000 12.219750000  1.357750000
  270   1 52.952250000 14.935250000  1.357750000
  271   1 50.236750000 14.935250000  4.073250000
  272   1 52.952250000 12.219750000  4.073250000
  273   1 54.310000000 10.862000000  0.000000000
  274   2 54.310000000 13.577500000  2.715500000
  275   1 57.025500000 10.862000000  2.715500000
  276   1 57.025500000 13.577500000  0.000000000
  277   1 55.667750000 12.219750000  1.357750000
  278   1 58.383250000 14.935250000  1.357750000
  279   1 55.667750000 14.935250000  4.073250000
  280   1 58.383250000 12.219750000  4.073250000
  281   1 59.741000000 10.862000000  0.000000000
  282   1 59.741000000 13.577500000  2.715500000
  283   1 62.456500000 10.862000000  2.715500000
  284   1 62.456500000 13.577500000  0.000000000
  285   1 61.098750000 12.219750000  1.357750000
  286   1 63.814250000 14.935250000  1.357750000
  287   1 61.098750000 14.935250000  4.073250000
  288   1 63.814250000 12.219750000  4.073250000
  289   1  0.000000000 16.293000000  0.000000000
  290   1  0.000000000 19.008500000  2.715500000
  291   1  2.715500000 16.293000000  2.715500000
  292   1  2.715500000 19.008500000  0.000000000
  293   1  1.357750000 17.650750000  1.357750000
  294   1  4.073250000 20.366250000  1.357750000
  295   1  1.357750000 20.366250000  4.073250000
  296   1  4.073250000 17.650750000  4.073250000
  297   1  5.431000000 16.293000000  0.000000000
  298   2  5.431000000 19.008500000  2.715500000
  299   2  8.146500000 16.293000000  2.715500000
  300   1  8.146500000 19.008500000  0.000000000
  301   1  6.788750000 17.650750000  1.357750000
  302   1  9.504250000 20.366250000  1.357750000
  303   2  6.788750000 20.366250000  4.073250000
  304   1  9.504250000 17.650750000  4.073250000
  305   1 10.862000000 16.293000000  0.000000000
  306   1 10.862000000 19.008500000  2.715500000
  307   1 13.577500000 16.293000000  2.715500000
  308   1 13.577500000 19.008500000  0.000000000
  309   1 12.219750000 17.650750000  1.357750000
  310   1 14.935250000 20.366250000  1.357750000
  311   1 12.219750000 20.366250000  4.073250000
  312   1 14.935250000 17.650750000  4.073250000
  313   1 16.293000000 16.293000000  0.000000000
  314   1 16.293000000 19.008500000  2.715500000
  315   1 19.008500000 16.293000000  2.715500000
  316   1 19.008500000 19.008500000  0.000000000
  317   1 17.650750000 17.650750000  1.357750000
  318   1 20.366250000 20.366250000  1.357750000
  319   1 17.650750000 20.366250000  4.073250000
  320   1 20.366250000 17.650750000  4.073250000
  321   1 21.724000000 16.293000000  0.000000000
  322   1 21.724000000 19.008500000  2.715500000
  323   1 24.439500000 16.293000000  2.715500000
  324   2 24.439500000 19.008500000  0.000000000
  325   1 23.081750000 17.650750000  1.357750000
  326   1 25.797250000 20.366250000  1.357750000
  327   1 23.081750000 20.366250000  4.073250000
  328   1 25.797250000 17.650750000  4.073250000
  329   1 27.155000000 16.293000000  0.000000000
  330   1 27.155000000 19.008500000  2.715500000
  331   1 29.870500000 16.293000000  2.715500000
  332   1 29.870500000 19.008500000  0.000000000
  333   1 28.512750000 17.650750000  1.357750000
  334   1 31.228250000 20.366250000  1.357750000
  335   1 28.512750000 20.366250000  4.073250000
  336   2 31.228250000 17.650750000  4.073250000
  337   1 32.586000000 16.293000000  0.000000000
  338   1 32.586000000 19.008500000  2.715500000
  339   1 35.301500000 16.293000000  2.715500000
  340   1 35.301500000 19.008500000  0.000000000
  341   1 33.943750000 17.650750000  1.357750000
  342   2 36.659250000 20.366250000  1.357750000
  343   1 33.943750000 20.366250000  4.073250000
  344   1 36.659250000 17.650750000  4.073250000
  345   1 38.017000000 16.293000000  0.000000000
  346   1 38.017000000 19.008500000  2.715500000
  347   1 40.732500000 16.293000000  2.715500000
  348   1 40.732500000 19.008500000  0.000000000
  349   1 39.374750000 17.650750000  1.357750000
  350   1 42.090250000 20.366250000  1.357750000
  351   1 39.374750000 20.366250000  4.073250000
  352   1 42.090250000 17.650750000  4.073250000
  353   1 43.448000000 16.293000000  0.000000000
  354   1 43.448000000 19.008500000  2.715500000
  355   1 46.163500000 16.293000000  2.715500000
  356   1 46.163500000 19.008500000  0.000000000
  357   1 44.805750000 17.650750000  1.357750000
  358   1 47.521250000 20.366250000  1.357750000
  359   1 44.805750000 20.366250000  4.073250000
  360   1 47.521250000 17.650750000  4.073250000
  361   1 48.879000000 16.293000000  0.000000000
  362   1 48.879000000 19.008500000  2.715500000
  363   1 51.594500000 16.293000000  2.715500000
  364   2 51.594500000 19.008500000  0.000000000
  365   1 50.236750000 17.650750000  1.357750000
  366   1 52.952250000 20.366250000  1.357750000
  367   1 50.236750000 20.366250000  4.073250000
  368   1 52.952250000 17.650750000  4.073250000
  369   2 54.310000000 16.293000000  0.000000000
  370   1 54.310000000 19.008500000  2.715500000
  371   1 57.025500000 16.293000000  2.715500000
  372   1 57.025500000 19.008500000  0.000000000
  373   1 55.667750000 17.650750000  1.357750000
  374   1 58.383250000 20.366250000  1.357750000
  375   1 55.667750000 20.366250000  4.073250000
  376   1 58.383250000 17.650750000  4.073250000
  377   2 59.741000000 16.293000000  0.000000000
  378   1 59.741000000 19.008500000  2.715500000
  379   1 62.456500000 16.293000000  2.715500000
  380   1 62.456500000 19.008500000  0.000000000
  381   1 61.098750000 17.650750000  1.357750000
  382   1 63.814250000 20.366250000  1.357750000
  383   1 61.098750000 20.366250000  4.073250000
  384   1 63.814250000 17.650750000  4.073250000
  385   1  0.000000000 21.724000000  0.000000000
  386   1  0.000000000 24.439500000  2.715500000
  387   1  2.715500000 21.724000000  2.715500000
  388   1  2.715500000 24.439500000  0.000000000
  389   2  1.357750000 23.081750000  1.357750000
  390   1  4.073250000 25.797250000  1.357750000
  391   1  1.357750000 25.797250000  4.073250000
  392   1  4.073250000 23.081750000  4.073250000
  393   1  5.431000000 21.724000000  0.000000000
  394   1  5.431000000 24.439500000  2.715500000
  395   1  8.146500000 21.724000000  2.715500000
  396   1  8.146500000 24.439500000  0.000000000
  397   1  6.788750000 23.081750000  1.357750000
  398   1  9.504250000 25.797250000  1.357750000
  399   1  6.788750000 25.797250000  4.073250000
  400   1  9.504250000 23.081750000  4.073250000
  401   1 10.862000000 21.724000000  0.000000000
  402   2 10.862000000 24.439500000  2.715500000
  403   1 13.577500000 21.724000000  2.715500000
  404   1 13.577500000 24.439500000  0.000000000
  405   1 12.219750000 23.081750000  1.357750000
  406   1 14.935250000 25.797250000  1.357750000
  407   1 12.219750000 25.797250000  4.073250000
  408   1 14.935250000 23.081750000  4.073250000
  409   2 16.293000000 21.724000000  0.000000000
  410   1 16.293000000 24.439500000  2.715500000
  411   1 19.008500000 21.724000000  2.715500000
  412   1 19.008500000 24.439500000  0.000000000
  413   1 17.650750000 23.081750000  1.357750000
  414   2 20.366250000 25.797250000  1.357750000
  415   1 17.650750000 25.797250000  4.073250000
  416   1 20.366250000 23.081750000  4.073250000
  417   1 21.724000000 21.724000000  0.000000000
  418   2 21.724000000 24.439500000  2.715500000
  419   1 24.439500000 21.724000000  2.715500000
  420   1 24.439500000 24.439500000  0.000000000
  421   1 23.081750000 23.081750000  1.357750000
  422   2 25.797250000 25.797250000  1.357750000
  423   1 23.081750000 25.797250000  4.073250000
  424   2 25.797250000 23.081750000  4.073250000
  425   1 27.155000000 21.724000000  0.000000000
  426   1 27.155000000 24.439500000  2.715500000
  427   1 29.870500000 21.724000000  2.715500000
  428   1 29.870500000 24.439500000  0.000000000
  429   1 28.512750000 23.081750000  1.357750000
  430   1 31.228250000 25.797250000  1.357750000
  431   1 28.512750000 25.797250000  4.073250000
  432   1 31.228250000 23.081750000  4.073250000
  433   1 32.586000000 21.724000000  0.000000000
  434   1 32.586000000 24.439500000  2.715500000
  435   1 35.301500000 21.724000000  2.715500000
  436   2 35.301500000 24.439500000  0.000000000
  437   1 33.943750000 23.081750000  1.357750000
  438   1 36.659250000 25.797250000  1.357750000
  439   1 33.943750000 25.797250000  4.073250000
  440   1 36.659250000 23.081750000  4.073250000
  441   2 38.017000000 21.724000000  0.000000000
  442   1 38.017000000 24.439500000  2.715500000
  443   1 40.732500000 21.724000000  2.715500000
  444   1 40.732500000 24.439500000  0.000000000
  445   1 39.374750000 23.081750000  1.357750000
  446   1 42.090250000 25.797250000  1.357750000
  447   1 39.374750000 25.797250000  4.073250000
  448   1 42.090250000 23.081750000  4.073250000
  449   1 43.448000000 21.724000000  0.000000000
  450   1 43.448000000 24.439500000  2.715500000
  451   1 46.163500000 21.724000000  2.715500000
  452   1 46.163500000 24.439500000  0.000000000
  453   1 44.805750000 23.081750000  1.357750000
  454   1 47.521250000 25.797250000  1.357750000
  455   1 44.805750000 25.797250000  4.073250000
  456   1 47.521250000 23.081750000  4.073250000
  457   1 48.879000000 21.724000000  0.000000000
  458   1 48.879000000 24.439500000  2.715500000
  459   1 51.594500000 21.724000000  2.715500000
  460   1 51.594500000 24.439500000  0.000000000
  461   1 50.236750000 23.081750000  1.357750000
  462   1 52.952250000 25.797250000  1.357750000
  463   1 50.236750000 25.797250000  4.073250000
  464   1 52.952250000 23.081750000  4.073250000
  465   1 54.310000000 21.724000000  0.000000000
  466   1 54.310000000 24.439500000  2.715500000
  467   1 57.025500000 21.724000000  2.715500000
  468   1 57.025500000 24.439500000  0.000000000
  469   1 55.667750000 23.081750000  1.357750000
  470   1 58.383250000 25.797250000  1.357750000
  471   1 55.667750000 25.797250000  4.073250000
  472   1 58.383250000 23.081750000  4.073250000
  473   1 59.741000000 21.724000000  0.000000000
  474   1 59.741000000 24.439500000  2.715500000
  475   1 62.456500000 21.724000000  2.715500000
  476   1 62.456500000 24.439500000  0.000000000
  477   1 61.098750000 23.081750000  1.357750000
  478   1 63.814250000 25.797250000  1.357750000
  479   1 61.098750000 25.797250000  4.073250000
  480   1 63.814250000 23.081750000  4.073250000
  481   1  0.000000000 27.155000000  0.000000000
  482   1  0.000000000 29.870500000  2.715500000
  483   1  2.715500000 27.155000000  2.715500000
  484   1  2.715500000 29.870500000  0.000000000
  485   1  1.357750000 28.512750000  1.357750000
  486   1  4.073250000 31.228250000  1.357750000
  487   1  1.357750000 31.228250000  4.073250000
  488   1  4.073250000 28.512750000  4.073250000
  489   1  5.431000000 27.155000000  0.000000000
  490   1  5.431000000 29.870500000  2.715500000
  491   1  8.146500000 27.155000000  2.715500000
  492   1  8.146500000 29.870500000  0.000000000
  493   1  6.788750000 28.512750000  1.357750000
  494   1  9.504250000 31.228250000  1.357750000
  495   1  6.788750000 31.228250000  4.073250000
  496   1  9.504250000 28.512750000  4.073250000
  497   1 10.862000000 27.155000000  0.000000000
  498   1 10.862000000 29.870500000  2.715500000
  499   1 13.577500000 27.155000000  2.715500000
  500   1 13.577500000 29.870500000  0.000000000
  501   1 12.219750000 28.512750000  1.357750000
  502   1 14.935250000 31.228250000  1.357750000
  503   1 12.219750000 31.228250000  4.073250000
  504   1 14.935250000 28.512750000  4.073250000
  505   1 16.293000000 27.155000000  0.000000000
  506   2 16.293000000 29.870500000  2.715500000
  507   1 19.008500000 27.155000000  2.715500000
  508   1 19.008500000 29.870500000  0.000000000
  509   2 17.650750000 28.512750000  1.357750000
  510   1 20.366250000 31.228250000  1.357750000
  511   1 17.650750000 31.228250000  4.073250000
  512   1 20.366250000 28.512750000  4.073250000
  513   1 21.724000000 27.155000000  0.000000000
  514   2 21.724000000 29.870500000  2.715500000
  515   1 24.439500000 27.155000000  2.715500000
  516   1 24.439500000 29.870500000  0.000000000
  517   1 23.081750000 28.512750000  1.357750000
  518   1 25.797250000 31.228250000  1.357750000
  519   1 23.081750000 31.228250000  4.073250000
  520   1 25.797250000 28.512750000  4.073250000
  521   1 27.155000000 27.155000000  0.000000000
  522   1 27.155000000 29.870500000  2.715500000
  523   1 29.870500000 27.155000000  2.715500000
  524   1 29.870500000 29.870500000  0.000000000
  525   1 28.512750000 28.512750000  1.357750000
  526   2 31.228250000 31.228250000  1.357750000
  527   1 28.512750000 31.228250000  4.073250000
  528   1 31.228250000 28.512750000  4.073250000
  529   1 32.586000000 27.155000000  0.000000000
  530   1 32.586000000 29.870500000  2.715500000
  531   1 35.301500000 27.155000000  2.715500000
  532   1 35.301500000 29.870500000  0.000000000
  533   1 33.943750000 28.512750000  1.357750000
  534   1 36.659250000 31.228250000  1.357750000
  535   1 33.943750000 31.228250000  4.073250000
  536   1 36.659250000 28.512750000  4.073250000
  537   1 38.017000000 27.155000000  0.000000000
  538   1 38.017000000 29.870500000  2.715500000
  539   1 40.732500000 27.155000000  2.715500000
  540   1 40.732500000 29.870500000  0.000000000
  541   1 39.374750000 28.512750000  1.357750000
  542   1 42.090250000 31.228250000  1.357750000
  543   1 39.374750000 31.228250000  4.073250000
  544   1 42.090250000 28.512750000  4.073250000
  545   1 43.448000000 27.155000000  0.000000000
  546   1 43.448000000 29.870500000  2.715500000
  547   1 46.163500000 27.155000000  2.715500000
  548   1 46.163500000 29.870500000  0.000000000
  549   1 44.805750000 28.512750000  1.357750000
  550   1 47.521250000 31.228250000  1.357750000
  551   1 44.805750000 31.228250000  4.073250000
  552   1 47.521250000 28.512750000  4.073250000
  553   1 48.879000000 27.155000000  0.000000000
  554   1 48.879000000 29.870500000  2.715500000
  555   1 51.594500000 27.155000000  2.715500000
  556   1 51.594500000 29.870500000  0.000000000
  557   2 50.236750000 28.512750000  1.357750000
  558   1 52.952250000 31.228250000  1.357750000
  559   1 50.236750000 31.228250000  4.073250000
  560   1 52.952250000 28.512750000  4.073250000
  561   1 54.310000000 27.155000000  0.000000000
  562   1 54.310000000 29.870500000  2.715500000
  563   1 57.025500000 27.155000000  2.715500000
  564   2 57.025500000 29.870500000  0.000000000
  565   1 55.667750000 28.512750000  1.357750000
  566   1 58.383250000 31.228250000  1.357750000
  567   1 55.667750000 31.228250000  4.073250000
  568   1 58.383250000 28.512750000  4.073250000
  569   1 59.741000000 27.155000000  0.000000000
  570   2 59.741000000 29.870500000  2.715500000
  571   1 62.456500000 27.155000000  2.715500000
  572   1 62.456500000 29.870500000  0.000000000
  573   1 61.098750000 28.512750000  1.357750000
  574   1 63.814250000 31.228250000  1.357750000
  575   1 61.098750000 31.228250000  4.073250000
  576   1 63.814250000 28.512750000  4.073250000
  577   1  0.000000000 32.586000000  0.000000000
  578   1  0.000000000 35.301500000  2.715500000
  579   1  2.715500000 32.586000000  2.715500000
  580   1  2.715500000 35.301500000  0.000000000
  581   1  1.357750000 33.943750000  1.357750000
  582   1  4.073250000 36.659250000  1.357750000
  583   1  1.357750000 36.659250000  4.073250000
  584   1  4.073250000 33.943750000  4.073250000
  585   1  5.431000000 32.586000000  0.000000000
  586   1  5.431000000 35.301500000  2.715500000
  587   1  8.146500000 32.586000000  2.715500000
  588   1  8.146500000 35.301500000  0.000000000
  589   1  6.788750000 33.943750000  1.357750000
  590   1  9.504250000 36.659250000  1.357750000
  591   1  6.788750000 36.659250000  4.073250000
  592   1  9.504250000 33.943750000  4.073250000
  593   1 10.862000000 32.586000000  0.000000000
  594   1 10.862000000 35.301500000  2.715500000
  595   1 13.577500000 32.586000000  2.715500000
  596   2 13.577500000 35.301500000  0.000000000
  597   1 12.219750000 33.943750000  1.357750000
  598   1 14.935250000 36.659250000  1.357750000
  599   1 12.219750000 36.659250000  4.073250000
  600   1 14.935250000 33.943750000  4.073250000
  601   1 16.293000000 32.586000000  0.000000000
  602   1 16.293000000 35.301500000  2.715500000
  603   1 19.008500000 32.586000000  2.715500000
  604   1 19.008500000 35.301500000  0.000000000
  605   1 17.650750000 33.943750000  1.357750000
  606   1 20.366250000 36.659250000  1.357750000
  607   1 17.650750000 36.659250000  4.073250000
  608   1 20.366250000 33.943750000  4.073250000