12x12x12 conventional 8-atom silicon

13824 atoms

1 atom types

  0.00000000  65.17200000 xlo xhi
  0.00000000  65.17200000 ylo yhi
  0.00000000  65.17200000 zlo zhi

Masses

1 28.0855

Atoms

1 1   0.00000000   0.00000000   0.00000000
2 1   0.00000000   2.71550000   2.71550000
3 1   2.71550000   0.00000000   2.71550000
4 1   2.71550000   2.71550000   0.00000000
5 1   1.35775000   1.35775000   1.35775000
6 1   4.07325000   4.07325000   1.35775000
7 1   1.35775000   4.07325000   4.07325000
8 1   4.07325000   1.35775000   4.07325000
9 1   0.00000000   0.00000000   5.43100000
10 1   0.00000000   2.71550000   8.14650000
11 1   2.71550000   0.00000000   8.14650000
12 1   2.71550000   2.71550000   5.43100000
13 1   1.35775000   1.35775000   6.78875000
14 1   4.07325000   4.07325000   6.78875000
15 1   1.35775000   4.07325000   9.50425000
16 1   4.07325000   1.35775000   9.50425000
17 1   0.00000000   0.00000000  10.86200000
18 1   0.00000000   2.71550000  13.57750000
19 1   2.71550000   0.00000000  13.57750000
20 1   2.71550000   2.71550000  10.86200000
21 1   1.35775000   1.35775000  12.21975000
22 1   4.07325000   4.07325000  12.21975000
23 1   1.35775000   4.07325000  14.93525000
24 1   4.07325000   1.35775000  14.93525000
25 1   0.00000000   0.00000000  16.29300000
26 1   0.00000000   2.71550000  19.00850000
27 1   2.71550000   0.00000000  19.00850000
28 1   2.71550000   2.71550000  16.29300000
29 1   1.35775000   1.35775000  17.65075000
30 1   4.07325000   4.07325000  17.65075000
31 1   1.35775000   4.07325000  20.36625000
32 1   4.07325000   1.35775000  20.36625000
33 1   0.00000000   0.00000000  21.72400000
34 1   0.00000000   2.71550000  24.43950000
35 1   2.71550000   0.00000000  24.43950000
36 1   2.71550000   2.71550000  21.72400000
37 1   1.35775000   1.35775000  23.08175000
38 1   4.07325000   4.07325000  23.08175000
39 1   1.35775000   4.07325000  25.79725000
40 1   4.07325000   1.35775000  25.79725000
41 1   0.00000000   0.00000000  27.15500000
42 1   0.00000000   2.71550000  29.87050000
43 1   2.71550000   0.00000000  29.87050000
44 1   2.71550000   2.71550000  27.15500000
45 1   1.35775000   1.35775000  28.51275000
46 1   4.07325000   4.07325000  28.51275000
47 1   1.35775000   4.07325000  31.22825000
48 1   4.07325000   1.35775000  31.22825000
49 1   0.00000000   0.00000000  32.58600000
50 1   0.00000000   2.71550000  35.30150000
51 1   2.71550000   0.00000000  35.30150000
52 1   2.71550000   2.71550000  32.58600000
53 1   1.35775000   1.35775000  33.94375000
54 1   4.07325000   4.07325000  33.94375000
55 1   1.35775000   4.07325000  36.65925000
56 1   4.07325000   1.35775000  36.65925000
57 1   0.00000000   0.00000000  38.01700000
58 1   0.00000000   2.71550000  40.73250000
59 1   2.71550000   0.00000000  40.73250000
60 1   2.71550000   2.71550000  38.01700000
61 1   1.35775000   1.35775000  39.37475000
62 1   4.07325000   4.07325000  39.37475000
63 1   1.35775000   4.07325000  42.09025000
64 1   4.07325000   1.35775000  42.09025000
65 1   0.00000000   0.00000000  43.44800000
66 1   0.00000000   2.71550000  46.16350000
67 1   2.71550000   0.00000000  46.16350000
68 1   2.71550000   2.71550000  43.44800000
69 1   1.35775000   1.35775000  44.80575000
70 1   4.07325000   4.07325000  44.80575000
71 1   1.35775000   4.07325000  47.52125000
72 1   4.07325000   1.35775000  47.52125000
73 1   0.00000000   0.00000000  48.87900000
74 1   0.00000000   2.71550000  51.59450000
75 1   2.71550000   0.00000000  51.59450000
76 1   2.71550000   2.71550000  48.87900000
77 1   1.35775000   1.35775000  50.23675000
78 1   4.07325000   4.07325000  50.23675000
79 1   1.35775000   4.07325000  52.95225000
80 1   4.07325000   1.35775000  52.95225000
81 1   0.00000000   0.00000000  54.31000000
82 1   0.00000000   2.71550000  57.02550000
83 1   2.71550000   0.00000000  57.02550000
84 1   2.71550000   2.71550000  54.31000000
85 1   1.35775000   1.35775000  55.66775000
86 1   4.07325000   4.07325000  55.66775000
87 1   1.35775000   4.07325000  58.38325000
88 1   4.07325000   1.35775000  58.38325000
89 1   0.00000000   0.00000000  59.74100000
90 1   0.00000000   2.71550000  62.45650000
91 1   2.71550000   0.00000000  62.45650000
92 1   2.71550000   2.71550000  59.74100000
93 1   1.35775000   1.35775000  61.09875000
94 1   4.07325000   4.07325000  61.09875000
95 1   1.35775000   4.07325000  63.81425000
96 1   4.07325000   1.35775000  63.81425000
97 1   0.00000000   5.43100000   0.00000000
98 1   0.00000000   8.14650000   2.71550000
99 1   2.71550000   5.43100000   2.71550000
100 1   2.71550000   8.14650000   0.00000000
101 1   1.35775000   6.78875000   1.35775000
102 1   4.07325000   9.50425000   1.35775000
103 1   1.35775000   9.50425000   4.07325000
104 1   4.07325000   6.78875000   4.07325000
105 1   0.00000000   5.43100000   5.43100000
106 1   0.00000000   8.14650000   8.14650000
107 1   2.71550000   5.43100000   8.14650000
108 1   2.71550000   8.14650000   5.43100000
109 1   1.35775000   6.78875000   6.78875000
110 1   4.07325000   9.50425000   6.78875000
111 1   1.35775000   9.50425000   9.50425000
112 1   4.07325000   6.78875000   9.50425000
113 1   0.00000000   5.43100000  10.86200000
114 1   0.00000000   8.14650000  13.57750000
115 1   2.71550000   5.43100000  13.57750000
116 1   2.71550000   8.14650000  10.86200000
117 1   1.35775000   6.78875000  12.21975000
118 1   4.07325000   9.50425000  12.21975000
119 1   1.35775000   9.50425000  14.93525000
120 1   4.07325000   6.78875000  14.93525000
121 1   0.00000000   5.43100000  16.29300000
122 1   0.00000000   8.14650000  19.00850000
123 1   2.71550000   5.43100000  19.00850000
124 1   2.71550000   8.14650000  16.29300000
125 1   1.35775000   6.78875000  17.65075000
126 1   4.07325000   9.50425000  17.65075000
127 1   1.35775000   9.50425000  20.36625000
128 1   4.07325000   6.78875000  20.36625000
129 1   0.00000000   5.43100000  21.72400000
130 1   0.00000000   8.14650000  24.43950000
131 1   2.71550000   5.43100000  24.43950000
132 1   2.71550000   8.14650000  21.72400000
133 1   1.35775000   6.78875000  23.08175000
134 1   4.07325000   9.50425000  23.08175000
135 1   1.35775000   9.50425000  25.79725000
136 1   4.07325000   6.78875000  25.79725000
137 1   0.00000000   5.43100000  27.15500000
138 1   0.00000000   8.14650000  29.87050000
139 1   2.71550000   5.43100000  29.87050000
140 1   2.71550000   8.14650000  27.15500000
141 1   1.35775000   6.78875000  28.51275000
142 1   4.07325000   9.50425000  28.51275000
143 1   1.35775000   9.50425000  31.22825000
144 1   4.07325000   6.78875000  31.22825000
145 1   0.00000000   5.43100000  32.58600000
146 1   0.00000000   8.14650000  35.30150000
147 1   2.71550000   5.43100000  35.30150000
148 1   2.71550000   8.14650000  32.58600000
149 1   1.35775000   6.78875000  33.94375000
150 1   4.07325000   9.50425000  33.94375000
151 1   1.35775000   9.50425000  36.65925000
152 1   4.07325000   6.78875000  36.65925000
153 1   0.00000000   5.43100000  38.01700000
154 1   0.00000000   8.14650000  40.73250000
155 1   2.71550000   5.43100000  40.73250000
156 1   2.71550000   8.14650000  38.01700000
157 1   1.35775000   6.78875000  39.37475000
158 1   4.07325000   9.50425000  39.37475000
159 1   1.35775000   9.50425000  42.09025000
160 1   4.07325000   6.78875000  42.09025000
161 1   0.00000000   5.43100000  43.44800000
162 1   0.00000000   8.14650000  46.16350000
163 1   2.71550000   5.43100000  46.16350000
164 1   2.71550000   8.14650000  43.44800000
165 1   1.35775000   6.78875000  44.80575000
166 1   4.07325000   9.50425000  44.80575000
167 1   1.35775000   9.50425000  47.52125000
168 1   4.07325000   6.78875000  47.52125000
169 1   0.00000000   5.43100000  48.87900000
170 1   0.00000000   8.14650000  51.59450000
171 1   2.71550000   5.43100000  51.59450000
172 1   2.71550000   8.14650000  48.87900000
173 1   1.35775000   6.78875000  50.23675000
174 1   4.07325000   9.50425000  50.23675000
175 1   1.35775000   9.50425000  52.95225000
176 1   4.07325000   6.78875000  52.95225000
177 1   0.00000000   5.43100000  54.31000000
178 1   0.00000000   8.14650000  57.02550000
179 1   2.71550000   5.43100000  57.02550000
180 1   2.71550000   8.14650000  54.31000000
181 1   1.35775000   6.78875000  55.66775000
182 1   4.07325000   9.50425000  55.66775000
183 1   1.35775000   9.50425000  58.38325000
184 1   4.07325000   6.78875000  58.38325000
185 1   0.00000000   5.43100000  59.74100000
186 1   0.00000000   8.14650000  62.45650000
187 1   2.71550000   5.43100000  62.45650000
188 1   2.71550000   8.14650000  59.74100000
189 1   1.35775000   6.78875000  61.09875000
190 1   4.07325000   9.50425000  61.09875000
191 1   1.35775000   9.50425000  63.81425000
192 1   4.07325000   6.78875000  63.81425000
193 1   0.00000000  10.86200000   0.00000000
194 1   0.00000000  13.57750000   2.71550000
195 1   2.71550000  10.86200000   2.71550000
196 1   2.71550000  13.57750000   0.00000000
197 1   1.35775000  12.21975000   1.35775000
198 1   4.07325000  14.93525000   1.35775000
199 1   1.35775000  14.93525000   4.07325000
200 1   4.07325000  12.21975000   4.07325000
201 1   0.00000000  10.86200000   5.43100000
202 1   0.00000000  13.57750000   8.14650000
203 1   2.71550000  10.86200000   8.14650000
204 1   2.71550000  13.57750000   5.43100000
205 1   1.35775000  12.21975000   6.78875000
206 1   4.07325000  14.93525000   6.78875000
207 1   1.35775000  14.93525000   9.50425000
208 1   4.07325000  12.21975000   9.50425000
209 1   0.00000000  10.86200000  10.86200000
210 1   0.00000000  13.57750000  13.57750000
211 1   2.71550000  10.86200000  13.57750000
212 1   2.71550000  13.57750000  10.86200000
213 1   1.35775000  12.21975000  12.21975000
214 1   4.07325000  14.93525000  12.21975000
215 1   1.35775000  14.93525000  14.93525000
216 1   4.07325000  12.21975000  14.93525000
217 1   0.00000000  10.86200000  16.29300000
218 1   0.00000000  13.57750000  19.00850000
219 1   2.71550000  10.86200000  19.00850000
220 1   2.71550000  13.57750000  16.29300000
221 1   1.35775000  12.21975000  17.65075000
222 1   4.07325000  14.93525000  17.65075000
223 1   1.35775000  14.93525000  20.36625000
224 1   4.07325000  12.21975000  20.36625000
225 1   0.00000000  10.86200000  21.72400000
226 1   0.00000000  13.57750000  24.43950000
227 1   2.71550000  10.86200000  24.43950000
228 1   2.71550000  13.57750000  21.72400000
229 1   1.35775000  12.21975000  23.08175000
230 1   4.07325000  14.93525000  23.08175000
231 1   1.35775000  14.93525000  25.79725000
232 1   4.07325000  12.21975000  25.79725000
233 1   0.00000000  10.86200000  27.15500000
234 1   0.00000000  13.57750000  29.87050000
235 1   2.71550000  10.86200000  29.87050000
236 1   2.71550000  13.57750000  27.15500000
237 1   1.35775000  12.21975000  28.51275000
238 1   4.07325000  14.93525000  28.51275000
239 1   1.35775000  14.93525000  31.22825000
240 1   4.07325000  12.21975000  31.22825000
241 1   0.00000000  10.86200000  32.58600000
242 1   0.00000000  13.57750000  35.30150000
243 1   2.71550000  10.86200000  35.30150000
244 1   2.71550000  13.57750000  32.58600000
245 1   1.35775000  12.21975000  33.94375000
246 1   4.07325000  14.93525000  33.94375000
247 1   1.35775000  14.93525000  36.65925000
248 1   4.07325000  12.21975000  36.65925000
249 1   0.00000000  10.86200000  38.01700000
250 1   0.00000000  13.57750000  40.73250000
251 1   2.71550000  10.86200000  40.73250000
252 1   2.71550000  13.57750000  38.01700000
253 1   1.35775000  12.21975000  39.37475000
254 1   4.07325000  14.93525000  39.37475000
255 1   1.35775000  14.93525000  42.09025000
256 1   4.07325000  12.21975000  42.09025000
257 1   0.00000000  10.86200000  43.44800000
258 1   0.00000000  13.57750000  46.16350000
259 1   2.71550000  10.86200000  46.16350000
260 1   2.71550000  13.57750000  43.44800000
261 1   1.35775000  12.21975000  44.80575000
262 1   4.07325000  14.93525000  44.80575000
263 1   1.35775000  14.93525000  47.52125000
264 1   4.07325000  12.21975000  47.52125000
265 1   0.00000000  10.86200000  48.87900000
266 1   0.00000000  13.57750000  51.59450000
267 1   2.71550000  10.86200000  51.59450000
268 1   2.71550000  13.57750000  48.87900000
269 1   1.35775000  12.21975000  50.23675000
270 1   4.07325000  14.93525000  50.23675000
271 1   1.35775000  14.93525000  52.95225000
272 1   4.07325000  12.21975000  52.95225000
273 1   0.00000000  10.86200000  54.31000000
274 1   0.00000000  13.57750000  57.02550000
275 1   2.71550000  10.86200000  57.02550000
276 1   2.71550000  13.57750000  54.31000000
277 1   1.35775000  12.21975000  55.66775000
278 1   4.07325000  14.93525000  55.66775000
279 1   1.35775000  14.93525000  58.38325000
280 1   4.07325000  12.21975000  58.38325000
281 1   0.00000000  10.86200000  59.74100000
282 1   0.00000000  13.57750000  62.45650000
283 1   2.71550000  10.86200000  62.45650000
284 1   2.71550000  13.57750000  59.74100000
285 1   1.35775000  12.21975000  61.09875000
286 1   4.07325000  14.93525000  61.09875000
287 1   1.35775000  14.93525000  63.81425000
288 1   4.07325000  12.21975000  63.81425000
289 1   0.00000000  16.29300000   0.00000000
290 1   0.00000000  19.00850000   2.71550000
291 1   2.71550000  16.29300000   2.71550000
292 1   2.71550000  19.00850000   0.00000000
293 1   1.35775000  17.65075000   1.35775000
294 1   4.07325000  20.36625000   1.35775000
295 1   1.35775000  20.36625000   4.07325000
296 1   4.07325000  17.65075000   4.07325000
297 1   0.00000000  16.29300000   5.43100000
298 1   0.00000000  19.00850000   8.14650000
299 1   2.71550000  16.29300000   8.14650000
300 1   2.71550000  19.00850000   5.43100000
301 1   1.35775000  17.65075000   6.78875000
302 1   4.07325000  20.36625000   6.78875000
303 1   1.35775000  20.36625000   9.50425000
304 1   4.07325000  17.65075000   9.50425000
305 1   0.00000000  16.29300000  10.86200000
306 1   0.00000000  19.00850000  13.57750000
307 1   2.71550000  16.29300000  13.57750000
308 1   2.71550000  19.00850000  10.86200000
309 1   1.35775000  17.65075000  12.21975000
310 1   4.07325000  20.36625000  12.21975000
311 1   1.35775000  20.36625000  14.93525000
312 1   4.07325000  17.65075000  14.93525000
313 1   0.00000000  16.29300000  16.29300000
314 1   0.00000000  19.00850000  19.00850000
315 1   2.71550000  16.29300000  19.00850000
316 1   2.71550000  19.00850000  16.29300000
317 1   1.35775000  17.65075000  17.65075000
318 1   4.07325000  20.36625000  17.65075000
319 1   1.35775000  20.36625000  20.36625000
320 1   4.07325000  17.65075000  20.36625000
321 1   0.00000000  16.29300000  21.72400000
322 1   0.00000000  19.00850000  24.43950000
323 1   2.71550000  16.29300000  24.43950000
324 1   2.71550000  19.00850000  21.72400000
325 1   1.35775000  17.65075000  23.08175000
326 1   4.07325000  20.36625000  23.08175000
327 1   1.35775000  20.36625000  25.79725000
328 1   4.07325000  17.65075000  25.79725000
329 1   0.00000000  16.29300000  27.15500000
330 1   0.00000000  19.00850000  29.87050000
331 1   2.71550000  16.29300000  29.87050000
332 1   2.71550000  19.00850000  27.15500000
333 1   1.35775000  17.65075000  28.51275000
334 1   4.07325000  20.36625000  28.51275000
335 1   1.35775000  20.36625000  31.22825000
336 1   4.07325000  17.65075000  31.22825000
337 1   0.00000000  16.29300000  32.58600000
338 1   0.00000000  19.00850000  35.30150000
339 1   2.71550000  16.29300000  35.30150000
340 1   2.71550000  19.00850000  32.58600000
341 1   1.35775000  17.65075000  33.94375000
342 1   4.07325000  20.36625000  33.94375000
343 1   1.35775000  20.36625000  36.65925000
344 1   4.07325000  17.65075000  36.65925000
345 1   0.00000000  16.29300000  38.01700000
346 1   0.00000000  19.00850000  40.73250000
347 1   2.71550000  16.29300000  40.73250000
348 1   2.71550000  19.00850000  38.01700000
349 1   1.35775000  17.65075000  39.37475000
350 1   4.07325000  20.36625000  39.37475000
351 1   1.35775000  20.36625000  42.09025000
352 1   4.07325000  17.65075000  42.09025000
353 1   0.00000000  16.29300000  43.44800000
354 1   0.00000000  19.00850000  46.16350000
355 1   2.71550000  16.29300000  46.16350000
356 1   2.71550000  19.00850000  43.44800000
357 1   1.35775000  17.65075000  44.80575000
358 1   4.07325000  20.36625000  44.80575000
359 1   1.35775000  20.36625000  47.52125000
360 1   4.07325000  17.65075000  47.52125000
361 1   0.00000000  16.29300000  48.87900000
362 1   0.00000000  19.00850000  51.59450000
363 1   2.71550000  16.29300000  51.59450000
364 1   2.71550000  19.00850000  48.87900000
365 1   1.35775000  17.65075000  50.23675000
366 1   4.07325000  20.36625000  50.23675000
367 1   1.35775000  20.36625000  52.95225000
368 1   4.07325000  17.65075000  52.95225000
369 1   0.00000000  16.29300000  54.31000000
370 1   0.00000000  19.00850000  57.02550000
371 1   2.71550000  16.29300000  57.02550000
372 1   2.71550000  19.00850000  54.31000000
373 1   1.35775000  17.65075000  55.66775000
374 1   4.07325000  20.36625000  55.66775000
375 1   1.35775000  20.36625000  58.38325000
376 1   4.07325000  17.65075000  58.38325000
377 1   0.00000000  16.29300000  59.74100000
378 1   0.00000000  19.00850000  62.45650000
379 1   2.71550000  16.29300000  62.45650000
380 1   2.71550000  19.00850000  59.74100000
381 1   1.35775000  17.65075000  61.09875000
382 1   4.07325000  20.36625000  61.09875000
383 1   1.35775000  20.36625000  63.81425000
384 1   4.07325000  17.65075000  63.81425000
385 1   0.00000000  21.72400000   0.00000000
386 1   0.00000000  24.43950000   2.71550000
387 1   2.71550000  21.72400000   2.71550000
388 1   2.71550000  24.43950000   0.00000000
389 1   1.35775000  23.08175000   1.35775000
390 1   4.07325000  25.79725000   1.35775000
391 1   1.35775000  25.79725000   4.07325000
392 1   4.07325000  23.08175000   4.07325000
393 1   0.00000000  21.72400000   5.43100000
394 1   0.00000000  24.43950000   8.14650000
395 1   2.71550000  21.72400000   8.14650000
396 1   2.71550000  24.43950000   5.43100000
397 1   1.35775000  23.08175000   6.78875000
398 1   4.07325000  25.79725000   6.78875000
399 1   1.35775000  25.79725000   9.50425000
400 1   4.07325000  23.08175000   9.50425000
401 1   0.00000000  21.72400000  10.86200000
402 1   0.00000000  24.43950000  13.57750000
403 1   2.71550000  21.72400000  13.57750000
404 1   2.71550000  24.43950000  10.86200000
405 1   1.35775000  23.08175000  12.21975000
406 1   4.07325000  25.79725000  12.21975000
407 1   1.35775000  25.79725000  14.93525000
408 1   4.07325000  23.08175000  14.93525000
409 1   0.00000000  21.72400000  16.29300000
410 1   0.00000000  24.43950000  19.00850000
411 1   2.71550000  21.72400000  19.00850000
412 1   2.71550000  24.43950000  16.29300000
413 1   1.35775000  23.08175000  17.65075000
414 1   4.07325000  25.79725000  17.65075000
415 1   1.35775000  25.79725000  20.36625000
416 1   4.07325000  23.08175000  20.36625000
417 1   0.00000000  21.72400000  21.72400000
418 1   0.00000000  24.43950000  24.43950000
419 1   2.71550000  21.72400000  24.43950000
420 1   2.71550000  24.43950000  21.72400000
421 1   1.35775000  23.08175000  23.08175000
422 1   4.07325000  25.79725000  23.08175000
423 1   1.35775000  25.79725000  25.79725000
424 1   4.07325000  23.08175000  25.79725000
425 1   0.00000000  21.72400000  27.15500000
426 1   0.00000000  24.43950000  29.87050000
427 1   2.71550000  21.72400000  29.87050000
428 1   2.71550000  24.43950000  27.15500000
429 1   1.35775000  23.08175000  28.51275000
430 1   4.07325000  25.79725000  28.51275000
431 1   1.35775000  25.79725000  31.22825000
432 1   4.07325000  23.08175000  31.22825000
433 1   0.00000000  21.72400000  32.58600000
434 1   0.00000000  24.43950000  35.30150000
435 1   2.71550000  21.72400000  35.30150000
436 1   2.71550000  24.43950000  32.58600000
437 1   1.35775000  23.08175000  33.94375000
438 1   4.07325000  25.79725000  33.94375000
439 1   1.35775000  25.79725000  36.65925000
440 1   4.07325000  23.08175000  36.65925000
441 1   0.00000000  21.72400000  38.01700000
442 1   0.00000000  24.43950000  40.73250000
443 1   2.71550000  21.72400000  40.73250000
444 1   2.71550000  24.43950000  38.01700000
445 1   1.35775000  23.08175000  39.37475000
446 1   4.07325000  25.79725000  39.37475000
447 1   1.35775000  25.79725000  42.09025000
448 1   4.07325000  23.08175000  42.09025000
449 1   0.00000000  21.72400000  43.44800000
450 1   0.00000000  24.43950000  46.16350000
451 1   2.71550000  21.72400000  46.16350000
452 1   2.71550000  24.43950000  43.44800000
453 1   1.35775000  23.08175000  44.80575000
454 1   4.07325000  25.79725000  44.80575000
455 1   1.35775000  25.79725000  47.52125000
456 1   4.07325000  23.08175000  47.52125000
457 1   0.00000000  21.72400000  48.87900000
458 1   0.00000000  24.43950000  51.59450000
459 1   2.71550000  21.72400000  51.59450000
460 1   2.71550000  24.43950000  48.87900000
461 1   1.35775000  23.08175000  50.23675000
462 1   4.07325000  25.79725000  50.23675000
463 1   1.35775000  25.79725000  52.95225000
464 1   4.07325000  23.08175000  52.95225000
465 1   0.00000000  21.72400000  54.31000000
466 1   0.00000000  24.43950000  57.02550000
467 1   2.71550000  21.72400000  57.02550000
468 1   2.71550000  24.43950000  54.31000000
469 1   1.35775000  23.08175000  55.66775000
470 1   4.07325000  25.79725000  55.66775000
471 1   1.35775000  25.79725000  58.38325000
472 1   4.07325000  23.08175000  58.38325000
473 1   0.00000000  21.72400000  59.74100000
474 1   0.00000000  24.43950000  62.45650000
475 1   2.71550000  21.72400000  62.45650000
476 1   2.71550000  24.43950000  59.74100000
477 1   1.35775000  23.08175000  61.09875000
478 1   4.07325000  25.79725000  61.09875000
479 1   1.35775000  25.79725000  63.81425000
480 1   4.07325000  23.08175000  63.81425000
481 1   0.00000000  27.15500000   0.00000000
482 1   0.00000000  29.87050000   2.71550000
483 1   2.71550000  27.15500000   2.71550000
484 1   2.71550000  29.87050000   0.00000000
485 1   1.35775000  28.51275000   1.35775000
486 1   4.07325000  31.22825000   1.35775000
487 1   1.35775000  31.22825000   4.07325000
488 1   4.07325000  28.51275000   4.07325000
489 1   0.00000000  27.15500000   5.43100000
490 1   0.00000000  29.87050000   8.14650000
491 1   2.71550000  27.15500000   8.14650000
492 1   2.71550000  29.87050000   5.43100000
493 1   1.35775000  28.51275000   6.78875000
494 1   4.07325000  31.22825000   6.78875000
495 1   1.35775000  31.22825000   9.50425000
496 1   4.07325000  28.51275000   9.50425000
497 1   0.00000000  27.15500000  10.86200000
498 1   0.00000000  29.87050000  13.57750000
499 1   2.71550000  27.15500000  13.57750000
500 1   2.71550000  29.87050000  10.86200000
501 1   1.35775000  28.51275000  12.21975000
502 1   4.07325000  31.22825000  12.21975000
503 1   1.35775000  31.22825000  14.93525000
504 1   4.07325000  28.51275000  14.93525000
505 1   0.00000000  27.15500000  16.29300000
506 1   0.00000000  29.87050000  19.00850000
507 1   2.71550000  27.15500000  19.00850000
508 1   2.71550000  29.87050000  16.29300000
509 1   1.35775000  28.51275000  17.65075000
510 1   4.07325000  31.22825000  17.65075000
511 1   1.35775000  31.22825000  20.36625000
512 1   4.07325000  28.51275000  20.36625000
513 1   0.00000000  27.15500000  21.72400000
514 1   0.00000000  29.87050000  24.43950000
515 1   2.71550000  27.15500000  24.43950000
516 1   2.71550000  29.87050000  21.72400000
517 1   1.35775000  28.51275000  23.08175000
518 1   4.07325000  31.22825000  23.08175000
519 1   1.35775000  31.22825000  25.79725000
520 1   4.07325000  28.51275000  25.79725000
521 1   0.00000000  27.15500000  27.15500000
522 1   0.00000000  29.87050000  29.87050000
523 1   2.71550000  27.15500000  29.87050000
524 1   2.71550000  29.87050000  27.15500000
525 1   1.35775000  28.51275000  28.51275000
526 1   4.07325000  31.22825000  28.51275000
527 1   1.35775000  31.22825000  31.22825000
528 1   4.07325000  28.51275000  31.22825000
529 1   0.00000000  27.15500000  32.58600000
530 1   0.00000000  29.87050000  35.30150000
531 1   2.71550000  27.15500000  35.30150000
532 1   2.71550000  29.87050000  32.58600000
533 1   1.35775000  28.51275000  33.94375000
534 1   4.07325000  31.22825000  33.94375000
535 1   1.35775000  31.22825000  36.65925000
536 1   4.07325000  28.51275000  36.65925000
537 1   0.00000000  27.15500000  38.01700000
538 1   0.00000000  29.87050000  40.73250000
539 1   2.71550000  27.15500000  40.73250000
540 1   2.71550000  29.87050000  38.01700000
541 1   1.35775000  28.51275000  39.37475000
542 1   4.07325000  31.22825000  39.37475000
543 1   1.35775000  31.22825000  42.09025000
544 1   4.07325000  28.51275000  42.09025000
545 1   0.00000000  27.15500000  43.44800000
546 1   0.00000000  29.87050000  46.16350000
547 1   2.71550000  27.15500000  46.16350000
548 1   2.71550000  29.87050000  43.44800000
549 1   1.35775000  28.51275000  44.80575000
550 1   4.07325000  31.22825000  44.80575000
551 1   1.35775000  31.22825000  47.52125000
552 1   4.07325000  28.51275000  47.52125000
553 1   0.00000000  27.15500000  48.87900000
554 1   0.00000000  29.87050000  51.59450000
555 1   2.71550000  27.15500000  51.59450000
556 1   2.71550000  29.87050000  48.87900000
557 1   1.35775000  28.51275000  50.23675000
558 1   4.07325000  31.22825000  50.23675000
559 1   1.35775000  31.22825000  52.95225000
560 1   4.07325000  28.51275000  52.95225000
561 1   0.00000000  27.15500000  54.31000000
562 1   0.00000000  29.87050000  57.02550000
563 1   2.71550000  27.15500000  57.02550000
564 1   2.71550000  29.87050000  54.31000000
565 1   1.35775000  28.51275000  55.66775000
566 1   4.07325000  31.22825000  55.66775000
567 1   1.35775000  31.22825000  58.38325000
568 1   4.07325000  28.51275000  58.38325000
569 1   0.00000000  27.15500000  59.74100000
570 1   0.00000000  29.87050000  62.45650000
571 1   2.71550000  27.15500000  62.45650000
572 1   2.71550000  29.87050000  59.74100000
573 1   1.35775000  28.51275000  61.09875000
574 1   4.07325000  31.22825000  61.09875000
575 1   1.35775000  31.22825000  63.81425000
576 1   4.07325000  28.51275000  63.81425000
577 1   0.00000000  32.58600000   0.00000000
578 1   0.00000000  35.30150000   2.71550000
579 1   2.71550000  32.58600000   2.71550000
580 1   2.71550000  35.30150000   0.00000000
581 1   1.35775000  33.94375000   1.35775000
582 1   4.07325000  36.65925000   1.35775000
583 1   1.35775000  36.65925000   4.07325000
584 1   4.07325000  33.94375000   4.07325000
585 1   0.00000000  32.58600000   5.43100000
586 1   0.00000000  35.30150000   8.14650000
587 1   2.71550000  32.58600000   8.14650000
588 1   2.71550000  35.30150000   5.43100000
589 1   1.35775000  33.94375000   6.78875000
590 1   4.07325000  36.65925000   6.78875000
591 1   1.35775000  36.65925000   9.50425000
592 1   4.07325000  33.94375000   9.50425000
593 1   0.00000000  32.58600000  10.86200000
594 1   0.00000000  35.30150000  13.57750000
595 1   2.71550000  32.58600000  13.57750000
596 1   2.71550000  35.30150000  10.86200000
597 1   1.35775000  33.94375000  12.21975000
598 1   4.07325000  36.65925000  12.21975000
599 1   1.35775000  36.65925000  14.93525000
600 1   4.07325000  33.94375000  14.93525000
601 1   0.00000000  32.58600000  16.29300000
602 1   0.00000000  35.30150000  19.00850000
603 1   2.71550000  32.58600000  19.00850000
604 1   2.71550000  35.30150000  16.29300000
605 1   1.35775000  33.94375000  17.65075000
606 1   4.07325000  36.65925000  17.65075000
607 1   1.35775000  36.65925000  20.36625000
608 1   4.07325000  33.94375000  20.36625000
609 1   0.00000000  32.58600000  21.72400000
610 1   0.00000000  35.30150000  24.43950000
611 1   2.71550000  32.58600000  24.43950000
612 1   2.71550000  35.30150000  21.72400000
613 1   1.35775000  33.94375000  23.08175000
614 1   4.07325000  36.65925000  23.08175000
615 1   1.35775000  36.65925000  25.79725000
616 1   4.07325000  33.94375000  25.79725000
617 1   0.00000000  32.58600000  27.15500000
618 1   0.00000000  35.30150000  29.87050000
619 1   2.71550000  32.58600000  29.87050000
620 1   2.71550000  35.30150000  27.15500000
621 1   1.35775000  33.94375000  28.51275000
622 1   4.07325000  36.65925000  28.51275000
623 1   1.35775000  36.65925000  31.22825000
624 1   4.07325000  33.94375000  31.22825000
625 1   0.00000000  32.58600000  32.58600000
626 1   0.00000000  35.30150000  35.30150000
627 1   2.71550000  32.58600000  35.30150000
628 1   2.71550000  35.30150000  32.58600000
629 1   1.35775000  33.94375000  33.94375000
630 1   4.07325000  36.65925000  33.94375000
631 1   1.35775000  36.65925000  36.65925000
632 1   4.07325000  33.94375000  36.65925000
633 1   0.00000000  32.58600000  38.01700000
634 1   0.00000000  35.30150000  40.73250000
635 1   2.71550000  32.58600000  40.73250000
636 1   2.71550000  35.30150000  38.01700000
637 1   1.35775000  33.94375000  39.37475000
638 1   4.07325000  36.65925000  39.37475000
639 1   1.35775000  36.65925000  42.09025000
640 1   4.07325000  33.94375000  42.09025000
641 1   0.00000000  32.58600000  43.44800000
642 1   0.00000000  35.30150000  46.16350000
643 1   2.71550000  32.58600000  46.16350000
644 1   2.71550000  35.30150000  43.44800000
645 1   1.35775000  33.94375000  44.80575000
646 1   4.07325000  36.65925000  44.80575000
647 1   1.35775000  36.65925000  47.52125000
648 1   4.07325000  33.94375000  47.52125000
649 1   0.00000000  32.58600000  48.87900000
650 1   0.00000000  35.30150000  51.59450000
651 1   2.71550000  32.58600000  51.59450000
652 1   2.71550000  35.30150000  48.87900000
653 1   1.35775000  33.94375000  50.23675000
654 1   4.07325000  36.65925000  50.23675000
655 1   1.35775000  36.65925000  52.95225000
656 1   4.07325000  33.94375000  52.95225000
657 1   0.00000000  32.58600000  54.31000000
658 1   0.00000000  35.30150000  57.02550000
659 1   2.71550000  32.58600000  57.02550000
660 1   2.71550000  35.30150000  54.31000000
661 1   1.35775000  33.94375000  55.66775000
662 1   4.07325000  36.65925000  55.66775000
663 1   1.35775000  36.65925000  58.38325000
664 1   4.07325000  33.94375000  58.38325000