ITEM: TIMESTEP
0
ITEM: NUMBER OF ATOMS
64
ITEM: BOX BOUNDS pp pp pp
  0.000000   10.861800
  0.000000   10.861800
  0.000000   10.861800
ITEM: ATOMS id type x y z
      1   0  0.000000000  0.000000000  0.000000000
      2   0  5.430900000  0.000000000  0.000000000
      3   0  0.000000000  5.430900000  0.000000000
      4   0  5.430900000  5.430900000  0.000000000
      5   0  0.000000000  0.000000000  5.430900000
      6   0  5.430900000  0.000000000  5.430900000
      7   0  0.000000000  5.430900000  5.430900000
      8   0  5.430900000  5.430900000  5.430900000
      9   0  4.073175000  1.357725000  4.073175000
     10   0  9.504075000  1.357725000  4.073175000
     11   0  4.073175000  6.788625000  4.073175000
     12   0  9.504075000  6.788625000  4.073175000
     13   0  4.073175000  1.357725000  9.504075000
     14   0  9.504075000  1.357725000  9.504075000
     15   0  4.073175000  6.788625000  9.504075000
     16   0  9.504075000  6.788625000  9.504075000
     17   0  0.000000000  2.715450000  2.715450000
     18   0  5.430900000  2.715450000  2.715450000
     19   0  0.000000000  8.146350000  2.715450000
     20   0  5.430900000  8.146350000  2.715450000
     21   0  0.000000000  2.715450000  8.146350000
     22   0  5.430900000  2.715450000  8.146350000
     23   0  0.000000000  8.146350000  8.146350000
     24   0  5.430900000  8.146350000  8.146350000
     25   0  4.073175000  4.073175000  1.357725000
     26   0  9.504075000  4.073175000  1.357725000
     27   0  4.073175000  9.504075000  1.357725000
     28   0  9.504075000  9.504075000  1.357725000
     29   0  4.073175000  4.073175000  6.788625000
     30   0  9.504075000  4.073175000  6.788625000
     31   0  4.073175000  9.504075000  6.788625000
     32   0  9.504075000  9.504075000  6.788625000
     33   1  2.715450000  0.000000000  2.715450000
     34   1  8.146350000  0.000000000  2.715450000
     35   1  2.715450000  5.430900000  2.715450000
     36   1  8.146350000  5.430900000  2.715450000
     37   1  2.715450000  0.000000000  8.146350000
     38   1  8.146350000  0.000000000  8.146350000
     39   1  2.715450000  5.430900000  8.146350000
     40   1  8.146350000  5.430900000  8.146350000
     41   1  1.357725000  1.357725000  1.357725000
     42   1  6.788625000  1.357725000  1.357725000
     43   1  1.357725000  6.788625000  1.357725000
     44   1  6.788625000  6.788625000  1.357725000
     45   1  1.357725000  1.357725000  6.788625000
     46   1  6.788625000  1.357725000  6.788625000
     47   1  1.357725000  6.788625000  6.788625000
     48   1  6.788625000  6.788625000  6.788625000
     49   1  2.715450000  2.715450000  0.000000000
     50   1  8.146350000  2.715450000  0.000000000
     51   1  2.715450000  8.146350000  0.000000000
     52   1  8.146350000  8.146350000  0.000000000
     53   1  2.715450000  2.715450000  5.430900000
     54   1  8.146350000  2.715450000  5.430900000
     55   1  2.715450000  8.146350000  5.430900000
     56   1  8.146350000  8.146350000  5.430900000
     57   1  1.357725000  4.073175000  4.073175000
     58   1  6.788625000  4.073175000  4.073175000
     59   1  1.357725000  9.504075000  4.073175000
     60   1  6.788625000  9.504075000  4.073175000
     61   1  1.357725000  4.073175000  9.504075000
     62   1  6.788625000  4.073175000  9.504075000
     63   1  1.357725000  9.504075000  9.504075000
     64   1  6.788625000  9.504075000  9.504075000
ITEM: TIMESTEP
1
ITEM: NUMBER OF ATOMS
64
ITEM: BOX BOUNDS pp pp pp
  0.000000   10.861800
  0.000000   10.861800
  0.000000   10.861800
ITEM: ATOMS id type x y z
      1   0  0.000616299 -0.015196744  0.015193594
      2   0  5.432377965  0.005791838  0.008993679
      3   0  0.000447506  5.413394580  0.002842533
      4   0  5.432513412  5.426251693  0.012206165
      5   0  0.004852075 -0.017691374  5.442507028
      6   0  5.446545663  0.023976120  5.418411428
      7   0  0.021985261  5.428545705  5.419626972
      8   0  5.437890872  5.424992919  5.427348409
      9   0  4.098214056  1.351528452  4.069569643
     10   0  9.509791239  1.374456951  4.078399852
     11   0  4.075597724  6.768168103  4.079012457
     12   0  9.521295949  6.779799788  4.071205756
     13   0  4.083527382  1.342689010  9.511874967
     14   0  9.497109545  1.357992743  9.519170730
     15   0  4.051890217  6.794921803  9.518543243
     16   0  9.498503657  6.791260942  9.486232973
     17   0  0.005385498  2.700009191  2.707990007
     18   0  5.417015687  2.705216555  2.714925049
     19   0  0.004648633  8.149342426  2.705293239
     20   0  5.452510637  8.150875678  2.735477530
     21   0  0.001194689  2.715190294  8.145000313
     22   0  5.407603394  2.709800452  8.133590209
     23   0 -0.003891892  8.121731079  8.139402032
     24   0  5.438270492  8.161048514  8.136595452
     25   0  4.076607872  4.080848970  1.349997481
     26   0  9.504292670  4.083552472  1.338151493
     27   0  4.079829916  9.495228498  1.362831241
     28   0  9.504167217  9.497641664  1.375453956
     29   0  4.072790601  4.062538582  6.797047348
     30   0  9.486743043  4.064619269  6.780030058
     31   0  4.070151618  9.502310718  6.783853194
     32   0  9.483755505  9.506210430  6.782313968
     33   1  2.713899587 -0.010531058  2.715047896
     34   1  8.138060166  0.013132677  2.709264965
     35   1  2.701509640  5.453913222  2.729901734
     36   1  8.154449427  5.434928424  2.702495348
     37   1  2.704829441 -0.010543658  8.163200453
     38   1  8.149023849 -0.000363436  8.157496053
     39   1  2.718832908  5.429570407  8.128298775
     40   1  8.144919718  5.422791340  8.133652664
     41   1  1.348088954  1.348012270  1.341474552
     42   1  6.790007273  1.369941592  1.375463297
     43   1  1.345030597  6.801499926  1.346382457
     44   1  6.787151054  6.807608820  1.341648015
     45   1  1.346546904  1.350634960  6.776827021
     46   1  6.799199071  1.336900757  6.806018218
     47   1  1.347770595  6.800329133  6.789645249
     48   1  6.785306720  6.776062677  6.798001883
     49   1  2.701981911  2.705894766 -0.000914455
     50   1  8.138596087  2.719608440  0.015499463
     51   1  2.712167455  8.152008781  0.007596308
     52   1  8.141742099  8.158369451  0.015908192
     53   1  2.736004653  2.717017684  5.466860704
     54   1  8.159454327  2.749283095  5.433761976
     55   1  2.711707567  8.153345108  5.441586382
     56   1  8.168151696  8.150689941  5.411221677
     57   1  1.386994727  4.094915327  4.062529133
     58   1  6.786403979  4.073733405  4.071349566
     59   1  1.369263490  9.505427729  4.053144537
     60   1  6.799570653  9.502445404  4.054685501
     61   1  1.344689211  4.077935618  9.487067159
     62   1  6.784428109  4.077962121  9.502028963
     63   1  1.309409107  9.489252336  9.520143621
     64   1  6.790974842  9.521575749  9.504020691
ITEM: TIMESTEP
2
ITEM: NUMBER OF ATOMS
64
ITEM: BOX BOUNDS pp pp pp
  0.000000   10.861800
  0.000000   10.861800
  0.000000   10.861800
ITEM: ATOMS id type x y z
      1   0  0.000223644 -0.030035267  0.030102175
      2   0  5.434209916  0.011416729  0.018355139
      3   0  0.000777596  5.396898113  0.004791574
      4   0  5.433992680  5.422258569  0.023790166
      5   0  0.009345167 -0.035070363  5.453046667
      6   0  5.462175684  0.046451900  5.406441073
      7   0  0.043297416  5.425937678  5.408978607
      8   0  5.444689598  5.418745754  5.424154822
      9   0  4.121852808  1.345545990  4.066392132
     10   0  9.515516277  1.390425426  4.084013773
     11   0  4.078235730  6.748901442  4.085273633
     12   0  9.538607052  6.771035510  4.069073693
     13   0  4.093218388  1.327985066  9.519723161
     14   0  9.490678382  1.358137314  9.534338256
     15   0  4.031641649  6.800899486  9.532344138
     16   0  9.492817179  6.793316537  9.469472781
     17   0  0.010965639  2.685624258  2.700531644
     18   0  5.403560741  2.695872583  2.714353719
     19   0  0.009093933  8.152081555  2.695779932
     20   0  5.473234191  8.154787229  2.755022253
     21   0  0.001683796  2.714612881  8.143437082
     22   0  5.385297493  2.703835477  8.121549687
     23   0 -0.008568005  8.097960247  8.132292550
     24   0  5.445268967  8.175239673  8.127546921
     25   0  4.079178860  4.088374568  1.342869751
     26   0  9.504799917  4.093243262  1.319538604
     27   0  4.086728245  9.486583266  1.368074340
     28   0  9.504058816  9.491826583  1.392936675
     29   0  4.072953093  4.052798046  6.805095508
     30   0  9.471075005  4.057052396  6.771709810
     31   0  4.067603657  9.501562883  6.778948765
     32   0  9.464343622  9.508028478  6.776520176
     33   1  2.712864240 -0.020139624  2.714262697
     34   1  8.130433227  0.026297178  2.703475300
     35   1  2.688267911  5.476820323  2.742936980
     36   1  8.162118292  5.439179516  2.689655506
     37   1  2.693820463 -0.021328665  8.179968140
     38   1  8.151925471 -0.000705800  8.168524147
     39   1  2.721895284  5.428588066  8.110773369
     40   1  8.143439363  5.414827469  8.121468983
     41   1  1.338855012  1.338047655  1.325857348
     42   1  6.790936174  1.381763901  1.392534788
     43   1  1.332607739  6.813694469  1.335168409
     44   1  6.785587606  6.825910301  1.326308547
     45   1  1.335847597  1.343385360  6.765797515
     46   1  6.809689397  1.317511792  6.822513816
     47   1  1.338368621  6.811327357  6.790239715
     48   1  6.782283881  6.764253293  6.806384260
     49   1  2.688958070  2.696886641 -0.002319972
     50   1  8.130713570  2.723932849  0.030418688
     51   1  2.708522887  8.157787041  0.014887726
     52   1  8.137478299  8.170470039  0.030758771
     53   1  2.755976245  2.718225516  5.501135983
     54   1  8.171508861  2.781608355  5.436487310
     55   1  2.708223753  8.159881305  5.451406209
     56   1  8.189078583  8.154347761  5.391844117
     57   1  1.415736136  4.114974682  4.052644677
     58   1  6.784183610  4.074457344  4.069123114
     59   1  1.380238036  9.506511302  4.033958688
     60   1  6.810505662  9.501496517  4.037179755
     61   1  1.332328482  4.082536351  9.470460227
     62   1  6.779919267  4.082324329  9.499946321
     63   1  1.262461583  9.474526016  9.535702172
     64   1  6.793069214  9.538668638  9.504397487
ITEM: TIMESTEP
3
ITEM: NUMBER OF ATOMS
64
ITEM: BOX BOUNDS pp pp pp
  0.000000   10.861800
  0.000000   10.861800
  0.000000   10.861800
ITEM: ATOMS id type x y z
      1   0 -0.002103062 -0.044195252  0.044542613
      2   0  5.436668050  0.016646903  0.028218196
      3   0  0.000987446  5.382351013  0.005054864
      4   0  5.435251128  5.419516942  0.033940410
      5   0  0.013199477 -0.051863248  5.461694181
      6   0  5.477936156  0.066024429  5.395493682
      7   0  0.063416511  5.422862594  5.399455415
      8   0  5.450962831  5.411981243  5.421763162
      9   0  4.142763185  1.339993655  4.063870239
     10   0  9.521108149  1.405147293  4.090234543
     11   0  4.081156251  6.731833210  4.092293940
     12   0  9.556032094  6.762357800  4.066474138
     13   0  4.101446636  1.314003648  9.527467841
     14   0  9.485144620  1.358273304  9.549558462
     15   0  4.013145850  6.806353195  9.544873767
     16   0  9.486784101  6.794320168  9.454692587
     17   0  0.016875653  2.673145244  2.692952280
     18   0  5.390776511  2.688142892  2.713708745
     19   0  0.013379131  8.154342004  2.687126119
     20   0  5.492122970  8.157446306  2.773342308
     21   0  0.000836033  2.713409068  8.141481307
     22   0  5.365031764  2.697201633  8.111013415
     23   0 -0.014658868  8.076039831  8.125075861
     24   0  5.451520801  8.188497586  8.119695143
     25   0  4.080118732  4.095451466  1.336994060
     26   0  9.505608143  4.101612822  1.302844126
     27   0  4.093898771  9.478293323  1.373648073
     28   0  9.503387122  9.487155683  1.410116458
     29   0  4.074006036  4.044744130  6.812515964
     30   0  9.458458155  4.051316822  6.764280882
     31   0  4.065710988  9.502523718  6.773949839
     32   0  9.446531790  9.509343190  6.771721432
     33   1  2.712759098 -0.028390790  2.712669271
     34   1  8.124163579  0.039489051  2.698464534
     35   1  2.676512185  5.499551029  2.753133603
     36   1  8.169197145  5.443889735  2.676845859
     37   1  2.682120132 -0.032355999  8.196527932
     38   1  8.155459900 -0.001010799  8.179816509
     39   1  2.724328544  5.428377021  8.094260283
     40   1  8.141855930  5.406940607  8.110102761
     41   1  1.330630131  1.327839409  1.311612640
     42   1  6.791109094  1.393190949  1.408523140
     43   1  1.320741874  6.824755583  1.324248824
     44   1  6.783909024  6.842956158  1.312649833
     45   1  1.326195693  1.336067223  6.756368604
     46   1  6.820079795  1.300839255  6.837529711
     47   1  1.330162096  6.821086358  6.789888879
     48   1  6.779854097  6.753970536  6.813135955
     49   1  2.676641875  2.688681311 -0.004678286
     50   1  8.122601869  2.728453421  0.044299200
     51   1  2.704022300  8.164035509  0.021922154
     52   1  8.134039344  8.182741701  0.043466534
     53   1  2.774744349  2.718656838  5.532097110
     54   1  8.181492050  2.810733077  5.438670640
     55   1  2.705099248  8.165878865  5.459981818
     56   1  8.208252702  8.156748653  5.373139554
     57   1  1.443303710  4.131695011  4.044181814
     58   1  6.782112373  4.075344645  4.066026632
     59   1  1.390355151  9.506915578  4.016373434
     60   1  6.821723294  9.501750032  4.021408422
     61   1  1.321387934  4.086797978  9.454404858
     62   1  6.774885475  4.085842031  9.497630694
     63   1  1.218368975  9.459817727  9.550096447
     64   1  6.794787659  9.554839469  9.505506694
ITEM: TIMESTEP
4
ITEM: NUMBER OF ATOMS
64
ITEM: BOX BOUNDS pp pp pp
  0.000000   10.861800
  0.000000   10.861800
  0.000000   10.861800
ITEM: ATOMS id type x y z
      1   0 -0.007165964 -0.057411130  0.058405745
      2   0  5.439987525  0.021343220  0.038789769
      3   0  0.001161995  5.370812848  0.002967878
      4   0  5.436252912  5.418473775  0.042119997
      5   0  0.016181475 -0.067818690  5.467675231
      6   0  5.493974798  0.081591778  5.386024691
      7   0  0.081837689  5.419161653  5.391412252
      8   0  5.456497135  5.404595327  5.420552506
      9   0  4.159757340  1.335029052  4.062307986
     10   0  9.526444225  1.418080112  4.097181968
     11   0  4.084347882  6.717814428  4.100345793
     12   0  9.573559129  6.753777847  4.063198654
     13   0  4.107537390  1.301136977  9.534998545
     14   0  9.480805874  1.358389525  9.564840145
     15   0  3.997155977  6.811080034  9.555547550
     16   0  9.480045440  6.793937181  9.442542469
     17   0  0.023183100  2.663362673  2.685281242
     18   0  5.378947250  2.682858517  2.712887050
     19   0  0.017384420  8.156060015  2.679767575
     20   0  5.508298689  8.158243780  2.789785009
     21   0 -0.001842596  2.711317737  8.138987437
     22   0  5.347753681  2.689490624  8.102955045
     23   0 -0.022732770  8.056961405  8.117724704
     24   0  5.456692213  8.200438723  8.113467530
     25   0  4.078754489  4.101810506  1.332854193
     26   0  9.506618942  4.108029756  1.288966656
     27   0  4.101471510  9.470351826  1.379751318
     28   0  9.501844095  9.484040953  1.426886208
     29   0  4.076357399  4.039217212  6.819261033
     30   0  9.450310611  4.048218059  6.758358920
     31   0  4.064617857  9.505780954  6.768962535
     32   0  9.430887431  9.509912457  6.768339828
     33   1  2.714116388 -0.034733538  2.709987166
     34   1  8.119861654  0.052678427  2.694697879
     35   1  2.666903728  5.522120003  2.759245212
     36   1  8.175384786  5.449202024  2.664208046
     37   1  2.669613856 -0.043641735  8.212671173
     38   1  8.159844592 -0.001275175  8.191410395
     39   1  2.725927401  5.429257044  8.079229507
     40   1  8.140005731  5.399241763  8.100061136
     41   1  1.323830210  1.317400676  1.299345432
     42   1  6.790327370  1.404070128  1.422883526
     43   1  1.309618305  6.834178629  1.313739489
     44   1  6.782071859  6.858225459  1.301303814
     45   1  1.318058249  1.328733661  6.749195688
     46   1  6.830240140  1.288082071  6.850516731
     47   1  1.323786763  6.829145488  6.788275793
     48   1  6.778114688  6.745772158  6.817712466
     49   1  2.665397957  2.681731063 -0.008326764
     50   1  8.114225358  2.733262483  0.056595843
     51   1  2.698358089  8.170973266  0.028501037
     52   1  8.131755108  8.195141749  0.053253450
     53   1  2.791631189  2.717799407  5.558261882
     54   1  8.188546572  2.835223286  5.439672098
     55   1  2.702491004  8.171087532  5.466810849
     56   1  8.224916549  8.157469985  5.355433408
     57   1  1.469366708  4.143749980  4.037579144
     58   1  6.780297149  4.076392591  4.061545271
     59   1  1.399238039  9.506253008  4.001095878
     60   1  6.833541476  9.503643569  4.008190697
     61   1  1.312431511  4.090512822  9.439062239
     62   1  6.769233972  4.088125507  9.494921435
     63   1  1.178308158  9.444817907  9.562592948
     64   1  6.796028294  9.569669084  9.507579777
ITEM: TIMESTEP
5
ITEM: NUMBER OF ATOMS
64
ITEM: BOX BOUNDS pp pp pp
  0.000000   10.861800
  0.000000   10.861800
  0.000000   10.861800
ITEM: ATOMS id type x y z
      1   0 -0.015519557 -0.069407554  0.071571985
      2   0  5.444327900  0.025380659  0.050227896
      3   0  0.001466777  5.363014728 -0.001887564
      4   0  5.436925149  5.419419077  0.047932798
      5   0  0.018136816 -0.082659710  5.470513093
      6   0  5.510499398  0.092360709  5.378394493
      7   0  0.098229449  5.414721023  5.385079931
      8   0  5.461224516  5.396419868  5.420815253
      9   0  4.171899855  1.330772529  4.061965948
     10   0  9.531443803  1.429094195  4.104859740
     11   0  4.087815837  6.707518745  4.109579409
     12   0  9.591049777  6.745468679  4.059076601
     13   0  4.110941804  1.289564598  9.542117911
     14   0  9.477891110  1.358563640  9.580217304
     15   0  3.983967797  6.814946400  9.563980434
     16   0  9.472342686  6.791829883  9.433728444
     17   0  0.029925780  2.656786613  2.677602601
     18   0  5.368336032  2.680783696  2.711858980
     19   0  0.021016931  8.157102313  2.674144312
     20   0  5.521026003  8.156678377  2.803845827
     21   0 -0.006666864  2.708130559  8.135883135
     22   0  5.334339793  2.680417219  8.097850542
     23   0 -0.033173566  8.041472261  8.110218005
     24   0  5.460579977  8.210743747  8.109244679
     25   0  4.074449306  4.107297888  1.330688025
     26   0  9.507813957  4.112011909  1.278555947
     27   0  4.109512717  9.462804613  1.386554933
     28   0  9.499103120  9.482753938  1.443144802
     29   0  4.080172715  4.036844886  6.825284553
     30   0  9.447762107  4.048294526  6.754478325
     31   0  4.064492077  9.511750165  6.764096449
     32   0  9.417793531  9.509514372  6.766628117
     33   1  2.717358310 -0.038665618  2.705950921
     34   1  8.118110623  0.065820444  2.692602204
     35   1  2.659838127  5.544622177  2.760462385
     36   1  8.180488746  5.455216312  2.651842865
     37   1  2.656200184 -0.055235186  8.228225923
     38   1  8.165394537 -0.001420615  8.203323617
     39   1  2.726506987  5.431552577  8.066236079
     40   1  8.137859874  5.391852046  8.091528649
     41   1  1.318980090  1.306743621  1.289450767
     42   1  6.788401138  1.414292820  1.435206456
     43   1  1.299491089  6.841579642  1.303733056
     44   1  6.780056126  6.871312516  1.292720820
     45   1  1.311803373  1.321447348  6.744774284
     46   1  6.839922566  1.279844482  6.861161947
     47   1  1.319734551  6.835047030  6.785071562
     48   1  6.777174490  6.740142595  6.819656511
     49   1  2.655538049  2.676296687 -0.013480580
     50   1  8.105609235  2.738356341  0.066804958
     51   1  2.691396109  8.178706650  0.034411703
     52   1  8.130879104  8.207694622  0.059360171
     53   1  2.805972350  2.715155645  5.578569321
     54   1  8.192005187  2.854004424  5.439001491
     55   1  2.700560210  8.175329934  5.471488591
     56   1  8.238576349  8.156215882  5.339009281
     57   1  1.493525741  4.150175169  4.033267661
     58   1  6.778820596  4.077607483  4.055287788
     59   1  1.406627756  9.504299296  3.988652600
     60   1  6.846124219  9.507488972  3.998078687
     61   1  1.305853714  4.093479071  9.424445406
     62   1  6.762765987  4.088989781  9.491723504
     63   1  1.143076172  9.429306605  9.572787616
     64   1  6.796621674  9.582746257  9.510790851
ITEM: TIMESTEP
6
ITEM: NUMBER OF ATOMS
64
ITEM: BOX BOUNDS pp pp pp
  0.000000   10.861800
  0.000000   10.861800
  0.000000   10.861800
ITEM: ATOMS id type x y z
      1   0 -0.027470578 -0.079969894  0.083899585
      2   0  5.449762819  0.028652016  0.062707344
      3   0  0.001914392  5.359177471 -0.009861320
      4   0  5.437222871  5.422482431  0.051052089
      5   0  0.018918757 -0.096267047  5.469960879
      6   0  5.527656806  0.097863406  5.372810876
      7   0  0.112407139  5.409347799  5.380582929
      8   0  5.465111303  5.387389476  5.422722477
      9   0  4.178628197  1.327313698  4.062998580
     10   0  9.536260686  1.437972196  4.113346281
     11   0  4.091603021  6.701460684  4.120059308
     12   0  9.608372828  6.737525553  4.053979375
     13   0  4.111191734  1.279389916  9.548747628
     14   0  9.476460394  1.358878632  9.595685159
     15   0  3.973881529  6.817952186  9.569889470
     16   0  9.463522578  6.787777237  9.428712247
     17   0  0.037054813  2.653715222  2.670011723
     18   0  5.358956759  2.682421004  2.710633009
     19   0  0.024255268  8.157321939  2.670489534
     20   0  5.529837529  8.152459763  2.815285257
     21   0 -0.013788295  2.703687105  8.132142223
     22   0  5.325194483  2.669676420  8.096140243
     23   0 -0.046162867  8.030015343  8.102593021
     24   0  5.463047887  8.219251795  8.107148026
     25   0  4.066920667  4.111840944  1.330619378
     26   0  9.509226969  4.113231146  1.272034631
     27   0  4.117976232  9.455736840  1.394111704
     28   0  9.494903513  9.483499275  1.458737133
     29   0  4.085548980  4.038066621  6.830485182
     30   0  9.451495959  4.051883374  6.752942684
     31   0  4.065381876  9.520630121  6.759505275
     32   0  9.407585829  9.508022938  6.766673302
     33   1  2.722690910 -0.039865521  2.700453439
     34   1  8.119326602  0.078955510  2.692377799
     35   1  2.655680882  5.567103279  2.756325995
     36   1  8.184400949  5.461937485  2.639798432
     37   1  2.641795917 -0.067067922  8.242993626
     38   1  8.172252678 -0.001392266  8.215482967
     39   1  2.725994418  5.435458589  8.055629314
     40   1  8.135362529  5.384932319  8.084858526
     41   1  1.316345995  1.295950250  1.282194432
     42   1  6.785200166  1.423773868  1.445212889
     43   1  1.290534014  6.846792546  1.294319243
     44   1  6.777873665  6.881887782  1.287216820
     45   1  1.307722704  1.314310603  6.743471085
     46   1  6.849105675  1.276668166  6.869224552
     47   1  1.318343263  6.838472733  6.780125424
     48   1  6.777067610  6.737447674  6.818695567
     49   1  2.647263421  2.672597266 -0.020289842
     50   1  8.096784457  2.743843614  0.074555504
     51   1  2.683072169  8.187283997  0.039501108
     52   1  8.131494642  8.220458215  0.061407947
     53   1  2.817484337  2.710325077  5.592439405
     54   1  8.191413762  2.866273153  5.436397483
     55   1  2.699477832  8.178511464  5.473727208
     56   1  8.248844009  8.152821243  5.324042698
     57   1  1.515506548  4.150345699  4.031421046
     58   1  6.777824461  4.078983565  4.047013703
     59   1  1.412323901  9.500917366  3.979489260
     60   1  6.859500743  9.513433310  3.991366312
     61   1  1.301895782  4.095660773  9.410436400
     62   1  6.755489884  4.088250853  9.488047980
     63   1  1.112972150  9.413141097  9.580402932
     64   1  6.796473628  9.593783258  9.515215622
ITEM: TIMESTEP
7
ITEM: NUMBER OF ATOMS
64
ITEM: BOX BOUNDS pp pp pp
  0.000000   10.861800
  0.000000   10.861800
  0.000000   10.861800
ITEM: ATOMS id type x y z
      1   0 -0.043047812 -0.089036564  0.095280361
      2   0  5.456197132  0.031083213  0.076130899
      3   0  0.002454115  5.359517554 -0.021046910
      4   0  5.436995968  5.427594537  0.051314945
      5   0  0.018573569 -0.108409671  5.465997191
      6   0  5.545579319  0.097959642  5.369425688
      7   0  0.124450811  5.402855810  5.377936668
      8   0  5.468091455  5.377578663  5.426356183
      9   0  4.179714160  1.324647343  4.065519929
     10   0  9.540969819  1.444676642  4.122448361
     11   0  4.095703025  6.699940141  4.131710109
     12   0  9.625286497  6.729969759  4.047840938
     13   0  4.108073312  1.270549279  9.554916479
     14   0  9.476518288  1.359453221  9.611269996
     15   0  3.967006770  6.820122373  9.573222631
     16   0  9.453397317  6.781659436  9.427686785
     17   0  0.044578239  2.654247124  2.662730190
     18   0  5.350805304  2.687981268  2.709291902
     19   0  0.027075426  8.156601150  2.668878512
     20   0  5.534568169  8.145549377  2.824106342
     21   0 -0.023377418  2.697741356  8.127658146
     22   0  5.320536617  2.657039476  8.098099495
     23   0 -0.061759217  8.022665271  8.094839543
     24   0  5.463960278  8.225912468  8.107279454
     25   0  4.056100250  4.115493333  1.332562663
     26   0  9.510930968  4.111610783  1.269612341
     27   0  4.126803834  9.449187175  1.402396977
     28   0  9.489124493  9.486363097  1.473663310
     29   0  4.092565703  4.042980608  6.834970128
     30   0  9.461679765  4.059108426  6.753592111
     31   0  4.067280084  9.532456014  6.755342816
     32   0  9.400355129  9.505380371  6.768473971
     33   1  2.730203257 -0.038289692  2.693595407
     34   1  8.123692068  0.092037354  2.694249504
     35   1  2.654522362  5.589280576  2.746877098
     36   1  8.187103799  5.469338933  2.628213562
     37   1  2.626495660 -0.079051311  8.256778662
     38   1  8.180473648 -0.001044362  8.227664585
     39   1  2.724421847  5.441065776  8.047730178
     40   1  8.132393673  5.378618029  8.080211305
     41   1  1.316092590  1.285211297  1.277771833
     42   1  6.780746502  1.432508710  1.452720348
     43   1  1.282767392  6.849956154  1.285382805
     44   1  6.775561730  6.889984494  1.284810280
     45   1  1.305865879  1.307280954  6.745430011
     46   1  6.857766548  1.278751676  6.874626995
     47   1  1.319632124  6.839425639  6.773393932
     48   1  6.777818161  6.737915818  6.814691908
     49   1  2.640625449  2.670799204 -0.028728701
     50   1  8.087700407  2.749691716  0.079603634
     51   1  2.673490541  8.196608200  0.043607737
     52   1  8.133647016  8.233292952  0.059135224
     53   1  2.825974029  2.703083841  5.599612538
     54   1  8.186773275  2.871818102  5.431939257
     55   1  2.699494233  8.180706742  5.473481732
     56   1  8.255641214  8.147150080  5.310754372
     57   1  1.535188564  4.144034994  4.032019748
     58   1  6.777333724  4.080615767  4.036424860
     59   1  1.416252506  9.496097660  3.973633011
     60   1  6.873709390  9.521315935  3.988180981
     61   1  1.300718798  4.096949091  9.396991338
     62   1  6.747317357  4.085813790  9.483869988
     63   1  1.088329985  9.396314865  9.585325066
     64   1  6.795454357  9.602638232  9.520892542
ITEM: TIMESTEP
8
ITEM: NUMBER OF ATOMS
64
ITEM: BOX BOUNDS pp pp pp
  0.000000   10.861800
  0.000000   10.861800
  0.000000   10.861800
ITEM: ATOMS id type x y z
      1   0 -0.061895207 -0.096613321  0.105541612
      2   0  5.463457485  0.032620809  0.090414601
      3   0  0.002969290  5.363933744 -0.035354290
      4   0  5.436074779  5.434538269  0.048733964
      5   0  0.017106575 -0.118902169  5.458786911
      6   0  5.564119217  0.092783885  5.368336249
      7   0  0.134499388  5.395126879  5.377047630
      8   0  5.470326053  5.367049017  5.431636756
      9   0  4.175363575  1.322754131  4.069614067
     10   0  9.545716860  1.449214267  4.131950155
     11   0  4.099995608  6.702954725  4.144363998
     12   0  9.641496647  6.722824976  4.040777944
     13   0  4.101463363  1.262926251  9.560622617
     14   0  9.477970184  1.360320753  9.626942270
     15   0  3.963402608  6.821574270  9.573932124
     16   0  9.442028488  6.773642233  9.430723635
     17   0  0.052448374  2.658294883  2.656030958
     18   0  5.343719500  2.697569413  2.707938305
     19   0  0.029479686  8.154918114  2.669305924
     20   0  5.535300363  8.136133174  2.830516325
     21   0 -0.035159321  2.690278865  8.122633803
     22   0  5.320380859  2.642622826  8.103707659
     23   0 -0.079824563  8.019315275  8.086873499
     24   0  5.463197128  8.230618234  8.109589324
     25   0  4.041983712  4.118411682  1.336241120
     26   0  9.513057926  4.107293978  1.271238678
     27   0  4.135860729  9.443157246  1.411266831
     28   0  9.481640278  9.491121217  1.487910516
     29   0  4.101111984  4.051267618  6.838730592
     30   0  9.477911748  4.069588216  6.755923270
     31   0  4.070192676  9.547107605  6.751733765
     32   0  9.396110011  9.501495214  6.771844605
     33   1  2.739799549 -0.034020787  2.685534322
     34   1  8.131271432  0.105218365  2.698340493
     35   1  2.656260033  5.610633463  2.732553425
     36   1  8.188666378  5.477410010  2.617309510
     37   1  2.610414439 -0.091047952  8.269517164
     38   1  8.190105567 -0.000246997  8.239850112
     39   1  2.721844342  5.448415630  8.042695625
     40   1  8.128788750  5.373019749  8.077654329
     41   1  1.318292756  1.274748125  1.276066096
     42   1  6.775095325  1.440481271  1.457693749
     43   1  1.276108674  6.850925569  1.276797095
     44   1  6.773254467  6.895686287  1.285378026
     45   1  1.306147851  1.300229908  6.750635529
     46   1  6.866020647  1.286080024  6.877371337
     47   1  1.323379771  6.838023597  6.765021657