<?xml version="1.0" encoding="ISO-8859-1"?>
<modeling>
 <generator>
  <i name="program" type="string">vasp </i>
  <i name="version" type="string">5.4.4.18Apr17-6-g9f103f2a35  </i>
  <i name="subversion" type="string">(build Sep 15 2021 12:59:37) complex            parallel </i>
  <i name="platform" type="string">LinuxGNU </i>
  <i name="date" type="string">2022 10 04 </i>
  <i name="time" type="string">09:51:49 </i>
 </generator>
 <incar>
  <i type="string" name="SYSTEM"> si_2x2x2</i>
  <i type="string" name="PREC">low</i>
  <i type="string" name="ALGO">  VeryFast</i>
  <i type="int" name="NELM">   150</i>
  <i name="EDIFF">      0.00000100</i>
  <i type="int" name="NSW">   100</i>
  <i type="int" name="ISIF">     3</i>
  <i type="int" name="ISYM">     0</i>
  <i name="ENCUT">    250.00000000</i>
  <i name="POTIM">      3.00000000</i>
  <i name="TEBEG">    600.00000000</i>
  <i name="TEEND">    600.00000000</i>
  <i name="SMASS">      1.00000000</i>
  <i type="string" name="LREAL"> Auto</i>
  <i type="logical" name="LPLANE"> T  </i>
  <i type="int" name="ISMEAR">     0</i>
  <i name="SIGMA">      0.10000000</i>
  <i type="int" name="NWRITE">     2</i>
  <i type="logical" name="LWAVE"> T  </i>
  <i type="int" name="MDALGO">     2</i>
  <v type="int" name="KPOINT_BSE">    -1     0     0     0</v>
  <i type="int" name="NELM">   150</i>
  <i type="string" name="GGA"> PS</i>
 </incar>
 <structure name="primitive_cell" >
  <crystal>
   <varray name="basis" >
    <v>      10.86180000       0.00000000       0.00000000 </v>
    <v>       0.00000000      10.86180000       0.00000000 </v>
    <v>       0.00000000       0.00000000      10.86180000 </v>
   </varray>
   <i name="volume">   1281.46103541 </i>
   <varray name="rec_basis" >
    <v>       0.09206577       0.00000000       0.00000000 </v>
    <v>       0.00000000       0.09206577       0.00000000 </v>
    <v>       0.00000000       0.00000000       0.09206577 </v>
   </varray>
  </crystal>
  <varray name="positions" >
   <v>       0.00000000       0.00000000       0.00000000 </v>
   <v>      -0.12500000       0.12500000      -0.12500000 </v>
   <v>      -0.12500000      -0.12500000       0.12500000 </v>
   <v>       0.12500000       0.12500000       0.12500000 </v>
   <v>       0.12500000      -0.12500000      -0.12500000 </v>
   <v>       0.00000000       0.25000000       0.25000000 </v>
   <v>       0.00000000      -0.25000000       0.25000000 </v>
   <v>       0.00000000       0.25000000      -0.25000000 </v>
   <v>       0.00000000      -0.25000000      -0.25000000 </v>
   <v>       0.25000000       0.00000000       0.25000000 </v>
   <v>      -0.25000000       0.00000000       0.25000000 </v>
   <v>       0.25000000       0.00000000      -0.25000000 </v>
   <v>      -0.25000000       0.00000000      -0.25000000 </v>
   <v>       0.25000000       0.25000000       0.00000000 </v>
   <v>      -0.25000000       0.25000000       0.00000000 </v>
   <v>       0.25000000      -0.25000000       0.00000000 </v>
   <v>      -0.25000000      -0.25000000       0.00000000 </v>
   <v>      -0.12500000       0.12500000       0.37500000 </v>
   <v>       0.37500000       0.12500000      -0.12500000 </v>
   <v>      -0.12500000      -0.37500000      -0.12500000 </v>
   <v>      -0.12500000       0.37500000       0.12500000 </v>
   <v>       0.37500000      -0.12500000       0.12500000 </v>
   <v>      -0.12500000      -0.12500000      -0.37500000 </v>
   <v>      -0.37500000       0.12500000       0.12500000 </v>
   <v>       0.12500000      -0.37500000       0.12500000 </v>
   <v>       0.12500000       0.12500000      -0.37500000 </v>
   <v>       0.12500000      -0.12500000       0.37500000 </v>
   <v>       0.12500000       0.37500000      -0.12500000 </v>
   <v>      -0.37500000      -0.12500000      -0.12500000 </v>
   <v>      -0.50000000       0.00000000       0.00000000 </v>
   <v>       0.00000000      -0.50000000       0.00000000 </v>
   <v>       0.00000000       0.00000000      -0.50000000 </v>
   <v>       0.37500000       0.12500000       0.37500000 </v>
   <v>      -0.12500000      -0.37500000       0.37500000 </v>
   <v>       0.37500000      -0.37500000      -0.12500000 </v>
   <v>       0.37500000       0.37500000       0.12500000 </v>
   <v>      -0.12500000       0.37500000      -0.37500000 </v>
   <v>       0.37500000      -0.12500000      -0.37500000 </v>
   <v>      -0.37500000      -0.37500000       0.12500000 </v>
   <v>      -0.37500000       0.12500000      -0.37500000 </v>
   <v>       0.12500000      -0.37500000      -0.37500000 </v>
   <v>       0.12500000       0.37500000       0.37500000 </v>
   <v>      -0.37500000      -0.12500000       0.37500000 </v>
   <v>      -0.37500000       0.37500000      -0.12500000 </v>
   <v>      -0.50000000       0.25000000       0.25000000 </v>
   <v>      -0.50000000      -0.25000000       0.25000000 </v>
   <v>      -0.50000000       0.25000000      -0.25000000 </v>
   <v>      -0.50000000      -0.25000000      -0.25000000 </v>
   <v>       0.25000000      -0.50000000       0.25000000 </v>
   <v>      -0.25000000      -0.50000000       0.25000000 </v>
   <v>       0.25000000      -0.50000000      -0.25000000 </v>
   <v>      -0.25000000      -0.50000000      -0.25000000 </v>
   <v>       0.25000000       0.25000000      -0.50000000 </v>
   <v>      -0.25000000       0.25000000      -0.50000000 </v>
   <v>       0.25000000      -0.25000000      -0.50000000 </v>
   <v>      -0.25000000      -0.25000000      -0.50000000 </v>
   <v>       0.37500000      -0.37500000       0.37500000 </v>
   <v>       0.37500000       0.37500000      -0.37500000 </v>
   <v>      -0.37500000      -0.37500000      -0.37500000 </v>
   <v>      -0.37500000       0.37500000       0.37500000 </v>
   <v>      -0.50000000      -0.50000000       0.00000000 </v>
   <v>      -0.50000000       0.00000000      -0.50000000 </v>
   <v>       0.00000000      -0.50000000      -0.50000000 </v>
   <v>      -0.50000000      -0.50000000      -0.50000000 </v>
  </varray>
 </structure>
 <varray name="primitive_index" >
  <v type="int" >        1 </v>
  <v type="int" >       14 </v>
  <v type="int" >       28 </v>
  <v type="int" >       41 </v>
  <v type="int" >       63 </v>
  <v type="int" >       17 </v>
  <v type="int" >       19 </v>
  <v type="int" >       21 </v>
  <v type="int" >       23 </v>
  <v type="int" >       33 </v>
  <v type="int" >       34 </v>
  <v type="int" >       37 </v>
  <v type="int" >       38 </v>
  <v type="int" >       49 </v>
  <v type="int" >       50 </v>
  <v type="int" >       51 </v>
  <v type="int" >       52 </v>
  <v type="int" >       10 </v>
  <v type="int" >       13 </v>
  <v type="int" >       16 </v>
  <v type="int" >       26 </v>
  <v type="int" >       27 </v>
  <v type="int" >       32 </v>
  <v type="int" >       42 </v>
  <v type="int" >       43 </v>
  <v type="int" >       45 </v>
  <v type="int" >       59 </v>
  <v type="int" >       61 </v>
  <v type="int" >       64 </v>
  <v type="int" >        2 </v>
  <v type="int" >        3 </v>
  <v type="int" >        5 </v>
  <v type="int" >        9 </v>
  <v type="int" >       12 </v>
  <v type="int" >       15 </v>
  <v type="int" >       25 </v>
  <v type="int" >       30 </v>
  <v type="int" >       31 </v>
  <v type="int" >       44 </v>
  <v type="int" >       46 </v>
  <v type="int" >       47 </v>
  <v type="int" >       57 </v>
  <v type="int" >       60 </v>
  <v type="int" >       62 </v>
  <v type="int" >       18 </v>
  <v type="int" >       20 </v>
  <v type="int" >       22 </v>
  <v type="int" >       24 </v>
  <v type="int" >       35 </v>
  <v type="int" >       36 </v>
  <v type="int" >       39 </v>
  <v type="int" >       40 </v>
  <v type="int" >       53 </v>
  <v type="int" >       54 </v>
  <v type="int" >       55 </v>
  <v type="int" >       56 </v>
  <v type="int" >       11 </v>
  <v type="int" >       29 </v>
  <v type="int" >       48 </v>
  <v type="int" >       58 </v>
  <v type="int" >        4 </v>
  <v type="int" >        6 </v>
  <v type="int" >        7 </v>
  <v type="int" >        8 </v>
 </varray>
 <kpoints>
  <generation param="Gamma">
   <v type="int" name="divisions">       1        1        1 </v>
   <v name="usershift">      0.00000000       0.00000000       0.00000000 </v>
   <v name="genvec1">      1.00000000       0.00000000       0.00000000 </v>
   <v name="genvec2">      0.00000000       1.00000000       0.00000000 </v>
   <v name="genvec3">      0.00000000       0.00000000       1.00000000 </v>
   <v name="shift">      0.00000000       0.00000000       0.00000000 </v>
  </generation>
  <varray name="kpointlist" >
   <v>       0.00000000       0.00000000       0.00000000 </v>
  </varray>
  <varray name="weights" >
   <v>       1.00000000 </v>
  </varray>
 </kpoints>
 <parameters>
  <separator name="general" >
   <i type="string" name="SYSTEM">si_2x2x2</i>
   <i type="logical" name="LCOMPAT"> F  </i>
  </separator>
  <separator name="electronic" >
   <i type="string" name="PREC">low</i>
   <i name="ENMAX">    250.00000000</i>
   <i name="ENAUG">    322.06900000</i>
   <i name="EDIFF">      0.00000100</i>
   <i type="int" name="IALGO">    48</i>
   <i type="int" name="IWAVPR">    12</i>
   <i type="int" name="NBANDS">   161</i>
   <i name="NELECT">    256.00000000</i>
   <i type="int" name="TURBO">     0</i>
   <i type="int" name="IRESTART">     0</i>
   <i type="int" name="NREBOOT">     0</i>
   <i type="int" name="NMIN">     0</i>
   <i name="EREF">      0.00000000</i>
   <separator name="electronic smearing" >
    <i type="int" name="ISMEAR">     0</i>
    <i name="SIGMA">      0.10000000</i>
    <i name="KSPACING">      0.50000000</i>
    <i type="logical" name="KGAMMA"> T  </i>
   </separator>
   <separator name="electronic projectors" >
    <i type="logical" name="LREAL"> T  </i>
    <v name="ROPT">     -0.01000000</v>
    <i type="int" name="LMAXPAW">  -100</i>
    <i type="int" name="LMAXMIX">     2</i>
    <i type="logical" name="NLSPLINE"> F  </i>
   </separator>
   <separator name="electronic startup" >
    <i type="int" name="ISTART">     1</i>
    <i type="int" name="ICHARG">     0</i>
    <i type="int" name="INIWAV">     1</i>
   </separator>
   <separator name="electronic spin" >
    <i type="int" name="ISPIN">     1</i>
    <i type="logical" name="LNONCOLLINEAR"> F  </i>
    <v name="MAGMOM">      1.00000000      1.00000000      1.00000000      1.00000000      1.00000000      1.00000000      1.00000000      1.00000000      1.00000000      1.00000000      1.00000000      1.00000000      1.00000000      1.00000000      1.00000000      1.00000000      1.00000000      1.00000000      1.00000000      1.00000000
      1.00000000      1.00000000      1.00000000      1.00000000      1.00000000      1.00000000      1.00000000      1.00000000      1.00000000      1.00000000      1.00000000      1.00000000      1.00000000      1.00000000      1.00000000      1.00000000      1.00000000      1.00000000      1.00000000      1.00000000
      1.00000000      1.00000000      1.00000000      1.00000000      1.00000000      1.00000000      1.00000000      1.00000000      1.00000000      1.00000000      1.00000000      1.00000000      1.00000000      1.00000000      1.00000000      1.00000000      1.00000000      1.00000000      1.00000000      1.00000000
      1.00000000      1.00000000      1.00000000      1.00000000</v>
    <i name="NUPDOWN">     -1.00000000</i>
    <i type="logical" name="LSORBIT"> F  </i>
    <v name="SAXIS">      0.00000000      0.00000000      1.00000000</v>
    <i type="logical" name="LSPIRAL"> F  </i>
    <v name="QSPIRAL">      0.00000000      0.00000000      0.00000000</v>
    <i type="logical" name="LZEROZ"> F  </i>
   </separator>
   <separator name="electronic exchange-correlation" >
    <i type="logical" name="LASPH"> F  </i>
    <i type="logical" name="LMETAGGA"> F  </i>
   </separator>
   <separator name="electronic convergence" >
    <i type="int" name="NELM">   150</i>
    <i type="int" name="NELMDL">     0</i>
    <i type="int" name="NELMIN">     2</i>
    <i name="ENINI">    250.00000000</i>
    <separator name="electronic convergence detail" >
     <i type="logical" name="LDIAG"> T  </i>
     <i type="logical" name="LSUBROT"> F  </i>
     <i name="WEIMIN">      0.00100000</i>
     <i name="EBREAK">      0.00000000</i>
     <i name="DEPER">      0.30000000</i>
     <i type="int" name="NRMM">     4</i>
     <i name="TIME">      0.40000000</i>
    </separator>
   </separator>
   <separator name="electronic mixer" >
    <i name="AMIX">      0.40000000</i>
    <i name="BMIX">      1.00000000</i>
    <i name="AMIN">      0.10000000</i>
    <i name="AMIX_MAG">      1.60000000</i>
    <i name="BMIX_MAG">      1.00000000</i>
    <separator name="electronic mixer details" >
     <i type="int" name="IMIX">     4</i>
     <i type="logical" name="MIXFIRST"> F  </i>
     <i type="int" name="MAXMIX">   -45</i>
     <i name="WC">    100.00000000</i>
     <i type="int" name="INIMIX">     1</i>
     <i type="int" name="MIXPRE">     1</i>
     <i type="int" name="MREMOVE">     5</i>
    </separator>
   </separator>
   <separator name="electronic dipolcorrection" >
    <i type="logical" name="LDIPOL"> F  </i>
    <i type="logical" name="LMONO"> F  </i>
    <i type="int" name="IDIPOL">     0</i>
    <i name="EPSILON">      1.00000000</i>
    <v name="DIPOL">   -100.00000000   -100.00000000   -100.00000000</v>
    <i name="EFIELD">      0.00000000</i>
   </separator>
  </separator>
  <separator name="grids" >
   <i type="int" name="NGX">    42</i>
   <i type="int" name="NGY">    42</i>
   <i type="int" name="NGZ">    42</i>
   <i type="int" name="NGXF">    48</i>
   <i type="int" name="NGYF">    48</i>
   <i type="int" name="NGZF">    48</i>
   <i type="logical" name="ADDGRID"> F  </i>
  </separator>
  <separator name="ionic" >
   <i type="int" name="NSW">   100</i>
   <i type="int" name="IBRION">     0</i>
   <i type="int" name="MDALGO">     2</i>
   <i type="int" name="ISIF">     3</i>
   <i name="PSTRESS">      0.00000000</i>
   <i name="EDIFFG">      0.00001000</i>
   <i type="int" name="NFREE">     0</i>
   <i name="POTIM">      3.00000000</i>
   <i name="SMASS">      1.00000000</i>
   <i name="SCALEE">      1.00000000</i>
  </separator>
  <separator name="ionic md" >
   <i name="TEBEG">    600.00000000</i>
   <i name="TEEND">    600.00000000</i>
   <i type="int" name="NBLOCK">     1</i>
   <i type="int" name="KBLOCK">   100</i>
   <i type="int" name="NPACO">   256</i>
   <i name="APACO">     16.00000000</i>
  </separator>
  <separator name="symmetry" >
   <i type="int" name="ISYM">     0</i>
   <i name="SYMPREC">      0.00001000</i>
  </separator>
  <separator name="dos" >
   <i type="int" name="LORBIT">     0</i>
   <v name="RWIGS">     -1.00000000</v>
   <i type="int" name="NEDOS">   301</i>
   <i name="EMIN">     10.00000000</i>
   <i name="EMAX">    -10.00000000</i>
   <i name="EFERMI">      0.00000000</i>
  </separator>
  <separator name="writing" >
   <i type="int" name="NWRITE">     2</i>
   <i type="logical" name="LWAVE"> T  </i>
   <i type="logical" name="LDOWNSAMPLE"> F  </i>
   <i type="logical" name="LCHARG"> T  </i>
   <i type="logical" name="LPARD"> F  </i>
   <i type="logical" name="LVTOT"> F  </i>
   <i type="logical" name="LVHAR"> F  </i>
   <i type="logical" name="LELF"> F  </i>
   <i type="logical" name="LOPTICS"> F  </i>
   <v name="STM">      0.00000000      0.00000000      0.00000000      0.00000000      0.00000000      0.00000000      0.00000000</v>
  </separator>
  <separator name="performance" >
   <i type="int" name="NPAR">     1</i>
   <i type="int" name="NSIM">     4</i>
   <i type="int" name="NBLK">    -1</i>
   <i type="logical" name="LPLANE"> T  </i>
   <i type="logical" name="LSCALAPACK"> T  </i>
   <i type="logical" name="LSCAAWARE"> F  </i>
   <i type="logical" name="LSCALU"> F  </i>
   <i type="logical" name="LASYNC"> F  </i>
   <i type="logical" name="LORBITALREAL"> F  </i>
  </separator>
  <separator name="miscellaneous" >
   <i type="int" name="IDIOT">     3</i>
   <i type="int" name="ISPECIAL">     0</i>
   <i type="logical" name="LMUSIC"> F  </i>
   <v name="POMASS">     28.08500000</v>
   <v name="DARWINR">      0.00000000</v>
   <v name="DARWINV">      1.00000000</v>
   <i type="logical" name="LCORR"> T  </i>
  </separator>
  <i type="logical" name="GGA_COMPAT"> T  </i>
  <i type="logical" name="LBERRY"> F  </i>
  <i type="int" name="ICORELEVEL">     0</i>
  <i type="logical" name="LDAU"> F  </i>
  <i type="int" name="I_CONSTRAINED_M">     0</i>
  <separator name="electronic exchange-correlation" >
   <i type="string" name="GGA">PS</i>
   <i type="int" name="VOSKOWN">     0</i>
   <i type="logical" name="LHFCALC"> F  </i>
   <i type="string" name="PRECFOCK"></i>
   <i type="logical" name="LSYMGRAD"> F  </i>
   <i type="logical" name="LHFONE"> F  </i>
   <i type="logical" name="LRHFCALC"> F  </i>
   <i type="logical" name="LTHOMAS"> F  </i>
   <i type="logical" name="LMODELHF"> F  </i>
   <i name="ENCUT4O">     -1.00000000</i>
   <i type="int" name="EXXOEP">     0</i>
   <i type="int" name="FOURORBIT">     0</i>
   <i name="AEXX">      0.00000000</i>
   <i name="HFALPHA">      0.00000000</i>
   <i name="MCALPHA">      0.00000000</i>
   <i name="ALDAX">      1.00000000</i>
   <i name="AGGAX">      1.00000000</i>
   <i name="ALDAC">      1.00000000</i>
   <i name="AGGAC">      1.00000000</i>
   <i type="int" name="NKREDX">     1</i>
   <i type="int" name="NKREDY">     1</i>
   <i type="int" name="NKREDZ">     1</i>
   <i type="logical" name="SHIFTRED"> F  </i>
   <i type="logical" name="ODDONLY"> F  </i>
   <i type="logical" name="EVENONLY"> F  </i>
   <i type="int" name="LMAXFOCK">     0</i>
   <i type="int" name="NMAXFOCKAE">     0</i>
   <i type="logical" name="LFOCKAEDFT"> F  </i>
   <i name="HFSCREEN">      0.00000000</i>
   <i name="HFSCREENC">      0.00000000</i>
   <i type="int" name="NBANDSGWLOW">     0</i>
  </separator>
  <separator name="vdW DFT" >
   <i type="logical" name="LUSE_VDW"> F  </i>
   <i name="Zab_VDW">     -0.84910000</i>
   <i name="PARAM1">      0.12340000</i>
   <i name="PARAM2">      1.00000000</i>
   <i name="PARAM3">      0.00000000</i>
  </separator>
  <separator name="model GW" >
   <i type="int" name="MODEL_GW">     0</i>
   <i name="MODEL_EPS0">     12.01369721</i>
   <i name="MODEL_ALPHA">      1.00000000</i>
  </separator>
  <separator name="linear response parameters" >
   <i type="logical" name="LEPSILON"> F  </i>
   <i type="logical" name="LRPA"> F  </i>
   <i type="logical" name="LNABLA"> F  </i>
   <i type="logical" name="LVEL"> F  </i>
   <i type="int" name="KINTER">     0</i>
   <i name="CSHIFT">      0.10000000</i>
   <i name="OMEGAMAX">     -1.00000000</i>
   <i name="DEG_THRESHOLD">      0.00200000</i>
   <i name="RTIME">     -0.10000000</i>
   <i name="WPLASMAI">      0.00000000</i>
   <v name="DFIELD">      0.00000000      0.00000000      0.00000000</v>
   <v name="WPLASMA">      0.00000000      0.00000000      0.00000000      0.00000000      0.00000000      0.00000000      0.00000000      0.00000000      0.00000000</v>
  </separator>
  <separator name="orbital magnetization" >
   <i type="logical" name="NUCIND"> F  </i>
   <v name="MAGPOS">      0.00000000      0.00000000      0.00000000</v>
   <i type="logical" name="LNICSALL"> T  </i>
   <i type="logical" name="ORBITALMAG"> F  </i>
   <i type="logical" name="LMAGBLOCH"> F  </i>
   <i type="logical" name="LCHIMAG"> F  </i>
   <i type="logical" name="LGAUGE"> T  </i>
   <i type="int" name="MAGATOM">     0</i>
   <v name="MAGDIPOL">      0.00000000      0.00000000      0.00000000</v>
   <v name="AVECCONST">      0.00000000      0.00000000      0.00000000</v>
  </separator>
  <separator name="response functions" >
   <i type="logical" name="LADDER"> F  </i>
   <i type="logical" name="LRPAFORCE"> F  </i>
   <i type="logical" name="LFXC"> F  </i>
   <i type="logical" name="LHARTREE"> T  </i>
   <i type="int" name="IBSE">     0</i>
   <v type="int" name="KPOINT">    -1     0     0     0</v>
   <i type="logical" name="LTCTE"> F  </i>
   <i type="logical" name="LTETE"> F  </i>
   <i type="logical" name="LTRIPLET"> F  </i>
   <i type="logical" name="LFXCEPS"> F  </i>
   <i type="logical" name="LFXHEG"> F  </i>
   <i type="int" name="NATURALO">     2</i>
   <i type="logical" name="L2ORDER"> F  </i>
   <i type="logical" name="LMP2LT"> F  </i>
   <i type="logical" name="LUSEW"> F  </i>
   <i name="ENCUTGW">     -2.00000000</i>
   <i name="ENCUTGWSOFT">     -2.00000000</i>
   <i name="ENCUTLF">     -1.00000000</i>
   <i type="int" name="LMAXMP2">    -1</i>
   <i name="SCISSOR">      0.00000000</i>
   <i type="int" name="NOMEGA">     0</i>
   <i type="int" name="NOMEGAR">     0</i>
   <i type="int" name="NBANDSGW">    -1</i>
   <i type="int" name="NBANDSO">    -1</i>
   <i type="int" name="NBANDSV">    -1</i>
   <i type="int" name="NELM">   150</i>
   <i type="int" name="NELMHF">     1</i>
   <i type="int" name="DIM">     3</i>
   <i type="int" name="ANTIRES">     0</i>
   <i name="OMEGAMAX">    -30.00000000</i>
   <i name="OMEGAMIN">    -30.00000000</i>
   <i name="OMEGATL">   -200.00000000</i>
   <i type="int" name="OMEGAGRID">   140</i>
   <i name="CSHIFT">     -0.10000000</i>
   <i type="logical" name="SELFENERGY"> F  </i>
   <i type="logical" name="LSPECTRAL"> F  </i>
   <i type="logical" name="LSPECTRALGW"> F  </i>
   <i type="logical" name="LSINGLES"> F  </i>
   <i type="logical" name="LFERMIGW"> F  </i>
   <i type="logical" name="ODDONLYGW"> F  </i>
   <i type="logical" name="EVENONLYGW"> F  </i>
   <i type="int" name="NKREDLFX">     1</i>
   <i type="int" name="NKREDLFY">     1</i>
   <i type="int" name="NKREDLFZ">     1</i>
   <i type="int" name="MAXMEM">  2800</i>
   <i type="int" name="TELESCOPE">     0</i>
   <i type="int" name="TAUPAR">     1</i>
   <i type="int" name="OMEGAPAR">    -1</i>
   <i name="LAMBDA">      1.00000000</i>
  </separator>
  <separator name="External order field" >
   <i name="OFIELD_KAPPA">      0.00000000</i>
   <v name="OFIELD_K">      0.00000000      0.00000000      0.00000000</v>
   <i name="OFIELD_Q6_NEAR">      0.00000000</i>
   <i name="OFIELD_Q6_FAR">      0.00000000</i>
   <i name="OFIELD_A">      0.00000000</i>
  </separator>
 </parameters>
 <atominfo>
  <atoms>      64 </atoms>
  <types>       1 </types>
  <array name="atoms" >
   <dimension dim="1">ion</dimension>
   <field type="string">element</field>
   <field type="int">atomtype</field>
   <set>
    <rc><c>Si</c><c>   1</c></rc>
    <rc><c>Si</c><c>   1</c></rc>
    <rc><c>Si</c><c>   1</c></rc>
    <rc><c>Si</c><c>   1</c></rc>
    <rc><c>Si</c><c>   1</c></rc>
    <rc><c>Si</c><c>   1</c></rc>
    <rc><c>Si</c><c>   1</c></rc>
    <rc><c>Si</c><c>   1</c></rc>
    <rc><c>Si</c><c>   1</c></rc>
    <rc><c>Si</c><c>   1</c></rc>
    <rc><c>Si</c><c>   1</c></rc>
    <rc><c>Si</c><c>   1</c></rc>
    <rc><c>Si</c><c>   1</c></rc>
    <rc><c>Si</c><c>   1</c></rc>
    <rc><c>Si</c><c>   1</c></rc>
    <rc><c>Si</c><c>   1</c></rc>
    <rc><c>Si</c><c>   1</c></rc>
    <rc><c>Si</c><c>   1</c></rc>
    <rc><c>Si</c><c>   1</c></rc>
    <rc><c>Si</c><c>   1</c></rc>
    <rc><c>Si</c><c>   1</c></rc>
    <rc><c>Si</c><c>   1</c></rc>
    <rc><c>Si</c><c>   1</c></rc>
    <rc><c>Si</c><c>   1</c></rc>
    <rc><c>Si</c><c>   1</c></rc>
    <rc><c>Si</c><c>   1</c></rc>
    <rc><c>Si</c><c>   1</c></rc>
    <rc><c>Si</c><c>   1</c></rc>
    <rc><c>Si</c><c>   1</c></rc>
    <rc><c>Si</c><c>   1</c></rc>
    <rc><c>Si</c><c>   1</c></rc>
    <rc><c>Si</c><c>   1</c></rc>
    <rc><c>Si</c><c>   1</c></rc>
    <rc><c>Si</c><c>   1</c></rc>
    <rc><c>Si</c><c>   1</c></rc>
    <rc><c>Si</c><c>   1</c></rc>
    <rc><c>Si</c><c>   1</c></rc>
    <rc><c>Si</c><c>   1</c></rc>
    <rc><c>Si</c><c>   1</c></rc>
    <rc><c>Si</c><c>   1</c></rc>
    <rc><c>Si</c><c>   1</c></rc>
    <rc><c>Si</c><c>   1</c></rc>
    <rc><c>Si</c><c>   1</c></rc>
    <rc><c>Si</c><c>   1</c></rc>
    <rc><c>Si</c><c>   1</c></rc>
    <rc><c>Si</c><c>   1</c></rc>
    <rc><c>Si</c><c>   1</c></rc>
    <rc><c>Si</c><c>   1</c></rc>
    <rc><c>Si</c><c>   1</c></rc>
    <rc><c>Si</c><c>   1</c></rc>
    <rc><c>Si</c><c>   1</c></rc>
    <rc><c>Si</c><c>   1</c></rc>
    <rc><c>Si</c><c>   1</c></rc>
    <rc><c>Si</c><c>   1</c></rc>
    <rc><c>Si</c><c>   1</c></rc>
    <rc><c>Si</c><c>   1</c></rc>
    <rc><c>Si</c><c>   1</c></rc>
    <rc><c>Si</c><c>   1</c></rc>
    <rc><c>Si</c><c>   1</c></rc>
    <rc><c>Si</c><c>   1</c></rc>
    <rc><c>Si</c><c>   1</c></rc>
    <rc><c>Si</c><c>   1</c></rc>
    <rc><c>Si</c><c>   1</c></rc>
    <rc><c>Si</c><c>   1</c></rc>
   </set>
  </array>
  <array name="atomtypes" >
   <dimension dim="1">type</dimension>
   <field type="int">atomspertype</field>
   <field type="string">element</field>
   <field>mass</field>
   <field>valence</field>
   <field type="string">pseudopotential</field>
   <set>
    <rc><c>  64</c><c>Si</c><c>     28.08500000</c><c>      4.00000000</c><c>  PAW_PBE Si 05Jan2001                  </c></rc>
   </set>
  </array>
 </atominfo>
 <structure name="initialpos" >
  <crystal>
   <varray name="basis" >
    <v>      10.86180000       0.00000000       0.00000000 </v>
    <v>       0.00000000      10.86180000       0.00000000 </v>
    <v>       0.00000000       0.00000000      10.86180000 </v>
   </varray>
   <i name="volume">   1281.46103541 </i>
   <varray name="rec_basis" >
    <v>       0.09206577       0.00000000       0.00000000 </v>
    <v>       0.00000000       0.09206577       0.00000000 </v>
    <v>       0.00000000       0.00000000       0.09206577 </v>
   </varray>
  </crystal>
  <varray name="positions" >
   <v>       0.00000000       0.00000000       0.00000000 </v>
   <v>       0.50000000       0.00000000       0.00000000 </v>
   <v>       0.00000000       0.50000000       0.00000000 </v>
   <v>       0.50000000       0.50000000       0.00000000 </v>
   <v>       0.00000000       0.00000000       0.50000000 </v>
   <v>       0.50000000       0.00000000       0.50000000 </v>
   <v>       0.00000000       0.50000000       0.50000000 </v>
   <v>       0.50000000       0.50000000       0.50000000 </v>
   <v>       0.37500000       0.12500000       0.37500000 </v>
   <v>       0.87500000       0.12500000       0.37500000 </v>
   <v>       0.37500000       0.62500000       0.37500000 </v>
   <v>       0.87500000       0.62500000       0.37500000 </v>
   <v>       0.37500000       0.12500000       0.87500000 </v>
   <v>       0.87500000       0.12500000       0.87500000 </v>
   <v>       0.37500000       0.62500000       0.87500000 </v>
   <v>       0.87500000       0.62500000       0.87500000 </v>
   <v>       0.00000000       0.25000000       0.25000000 </v>
   <v>       0.50000000       0.25000000       0.25000000 </v>
   <v>       0.00000000       0.75000000       0.25000000 </v>
   <v>       0.50000000       0.75000000       0.25000000 </v>
   <v>       0.00000000       0.25000000       0.75000000 </v>
   <v>       0.50000000       0.25000000       0.75000000 </v>
   <v>       0.00000000       0.75000000       0.75000000 </v>
   <v>       0.50000000       0.75000000       0.75000000 </v>
   <v>       0.37500000       0.37500000       0.12500000 </v>
   <v>       0.87500000       0.37500000       0.12500000 </v>
   <v>       0.37500000       0.87500000       0.12500000 </v>
   <v>       0.87500000       0.87500000       0.12500000 </v>
   <v>       0.37500000       0.37500000       0.62500000 </v>
   <v>       0.87500000       0.37500000       0.62500000 </v>
   <v>       0.37500000       0.87500000       0.62500000 </v>
   <v>       0.87500000       0.87500000       0.62500000 </v>
   <v>       0.25000000       0.00000000       0.25000000 </v>
   <v>       0.75000000       0.00000000       0.25000000 </v>
   <v>       0.25000000       0.50000000       0.25000000 </v>
   <v>       0.75000000       0.50000000       0.25000000 </v>
   <v>       0.25000000       0.00000000       0.75000000 </v>
   <v>       0.75000000       0.00000000       0.75000000 </v>
   <v>       0.25000000       0.50000000       0.75000000 </v>
   <v>       0.75000000       0.50000000       0.75000000 </v>
   <v>       0.12500000       0.12500000       0.12500000 </v>
   <v>       0.62500000       0.12500000       0.12500000 </v>
   <v>       0.12500000       0.62500000       0.12500000 </v>
   <v>       0.62500000       0.62500000       0.12500000 </v>
   <v>       0.12500000       0.12500000       0.62500000 </v>
   <v>       0.62500000       0.12500000       0.62500000 </v>
   <v>       0.12500000       0.62500000       0.62500000 </v>
   <v>       0.62500000       0.62500000       0.62500000 </v>
   <v>       0.25000000       0.25000000       0.00000000 </v>
   <v>       0.75000000       0.25000000       0.00000000 </v>
   <v>       0.25000000       0.75000000       0.00000000 </v>
   <v>       0.75000000       0.75000000       0.00000000 </v>
   <v>       0.25000000       0.25000000       0.50000000 </v>
   <v>       0.75000000       0.25000000       0.50000000 </v>
   <v>       0.25000000       0.75000000       0.50000000 </v>
   <v>       0.75000000       0.75000000       0.50000000 </v>
   <v>       0.12500000       0.37500000       0.37500000 </v>
   <v>       0.62500000       0.37500000       0.37500000 </v>
   <v>       0.12500000       0.87500000       0.37500000 </v>
   <v>       0.62500000       0.87500000       0.37500000 </v>
   <v>       0.12500000       0.37500000       0.87500000 </v>
   <v>       0.62500000       0.37500000       0.87500000 </v>
   <v>       0.12500000       0.87500000       0.87500000 </v>
   <v>       0.62500000       0.87500000       0.87500000 </v>
  </varray>
  <varray name="velocities" >
   <v>       0.00118273       0.00075111       0.00017330 </v>
   <v>      -0.00022671      -0.00006535       0.00013439 </v>
   <v>       0.00233387       0.00179658       0.00141121 </v>
   <v>       0.00130712      -0.00034245      -0.00053598 </v>
   <v>       0.00021336      -0.00113971       0.00080602 </v>
   <v>       0.00114847       0.00024501       0.00071277 </v>
   <v>      -0.00078827      -0.00255090       0.00026972 </v>
   <v>       0.00082649      -0.00028618       0.00062398 </v>
   <v>       0.00196858       0.00258413      -0.00033984 </v>
   <v>       0.00243034       0.00077379      -0.00021584 </v>
   <v>      -0.00100808       0.00083461       0.00076981 </v>
   <v>       0.00009718       0.00002035       0.00074785 </v>
   <v>       0.00053320      -0.00007994      -0.00149296 </v>
   <v>      -0.00130468      -0.00040772      -0.00040870 </v>
   <v>       0.00111027      -0.00094807      -0.00032997 </v>
   <v>       0.00075452       0.00182281      -0.00086492 </v>
   <v>      -0.00108675       0.00035854      -0.00063202 </v>
   <v>      -0.00013694      -0.00005116      -0.00051828 </v>
   <v>      -0.00129113      -0.00071273      -0.00093303 </v>
   <v>       0.00046730      -0.00203961      -0.00071684 </v>
   <v>      -0.00019516       0.00121514       0.00066915 </v>
   <v>      -0.00266418      -0.00142240       0.00021322 </v>
   <v>       0.00036737      -0.00152599       0.00169059 </v>
   <v>       0.00017514      -0.00077638      -0.00032166 </v>
   <v>       0.00045039      -0.00093258      -0.00060971 </v>
   <v>       0.00150159      -0.00204956       0.00255319 </v>
   <v>      -0.00036083       0.00030783       0.00021876 </v>
   <v>       0.00016452       0.00064310       0.00128051 </v>
   <v>      -0.00121861      -0.00082976      -0.00130656 </v>
   <v>      -0.00237787       0.00014423      -0.00084327 </v>
   <v>      -0.00055116       0.00060198       0.00037520 </v>
   <v>       0.00048363       0.00275481      -0.00026637 </v>
   <v>      -0.00161696       0.00116485      -0.00213718 </v>
   <v>       0.00088958      -0.00265514       0.00107965 </v>
   <v>      -0.00196377      -0.00163353       0.00231060 </v>
   <v>       0.00156553       0.00100595      -0.00036297 </v>
   <v>       0.00010315      -0.00003321      -0.00118791 </v>
   <v>      -0.00316044      -0.00125028       0.00046722 </v>
   <v>      -0.00022909       0.00073192      -0.00025515 </v>
   <v>      -0.00145692       0.00019189      -0.00021131 </v>
   <v>       0.00040504      -0.00055822      -0.00066434 </v>
   <v>      -0.00111055       0.00047513       0.00123672 </v>
   <v>       0.00141127       0.00112022       0.00117133 </v>
   <v>      -0.00083008      -0.00013644      -0.00197162 </v>
   <v>       0.00086560       0.00026884       0.00001557 </v>
   <v>      -0.00028569       0.00175197      -0.00115568 </v>
   <v>      -0.00011621       0.00056911       0.00045051 </v>
   <v>       0.00004488      -0.00106048       0.00084202 </v>
   <v>       0.00061483      -0.00029536      -0.00184125 </v>
   <v>       0.00005881       0.00112762      -0.00016771 </v>
   <v>      -0.00057440      -0.00011863      -0.00078266 </v>
   <v>       0.00186954      -0.00025905       0.00120044 </v>
   <v>      -0.00056313      -0.00001594      -0.00239166 </v>
   <v>      -0.00116396       0.00019726       0.00073769 </v>
   <v>       0.00005061      -0.00037884      -0.00023507 </v>
   <v>       0.00249579      -0.00216855      -0.00081496 </v>
   <v>       0.00051180      -0.00025712      -0.00119191 </v>
   <v>       0.00095800      -0.00092561       0.00021275 </v>
   <v>       0.00106615       0.00241079       0.00078125 </v>
   <v>       0.00050580       0.00020851       0.00096819 </v>
   <v>      -0.00185712      -0.00166663       0.00083767 </v>
   <v>      -0.00163713       0.00230697      -0.00002862 </v>
   <v>      -0.00081023      -0.00077943      -0.00032859 </v>
   <v>      -0.00034642       0.00196791       0.00110328 </v>
  </varray>
 </structure>
 <calculation>
  <scstep>
   <time name="diag">    0.17    0.17</time>
   <time name="diis">    0.42    0.42</time>
   <time name="orth">    0.04    0.04</time>
   <time name="total">    0.72    0.72</time>
   <energy>
    <i name="alphaZ">    107.59920118 </i>
    <i name="ewald">  -7312.82194087 </i>
    <i name="hartreedc">   -479.41431166 </i>
    <i name="XCdc">   -537.83394749 </i>
    <i name="pawpsdc">  62612.65027652 </i>
    <i name="pawaedc"> -61512.72348121 </i>
    <i name="eentropy">     -0.13971099 </i>
    <i name="bandstr">    174.44001897 </i>
    <i name="atom">   6564.54007760 </i>
    <i name="e_fr_energy">   -383.70381794 </i>
    <i name="e_wo_entrp">   -383.56410695 </i>
    <i name="e_0_energy">   -383.63396244 </i>
   </energy>
  </scstep>
  <scstep>
   <time name="diag">    0.16    0.16</time>
   <time name="diis">    0.42    0.42</time>
   <time name="orth">    0.04    0.04</time>
   <time name="total">    0.71    0.71</time>
   <energy>
    <i name="e_fr_energy">   -364.26262769 </i>
    <i name="e_wo_entrp">   -364.26220887 </i>
    <i name="e_0_energy">   -364.26241828 </i>
   </energy>
  </scstep>
  <scstep>
   <time name="diag">    0.16    0.16</time>
   <time name="diis">    0.43    0.43</time>
   <time name="orth">    0.04    0.04</time>
   <time name="total">    0.71    0.71</time>
   <energy>
    <i name="e_fr_energy">   -360.74765135 </i>
    <i name="e_wo_entrp">   -360.74741596 </i>
    <i name="e_0_energy">   -360.74753366 </i>
   </energy>
  </scstep>
  <scstep>
   <time name="diag">    0.16    0.16</time>
   <time name="diis">    0.42    0.42</time>
   <time name="orth">    0.04    0.04</time>
   <time name="total">    0.70    0.70</time>
   <energy>
    <i name="e_fr_energy">   -359.74984399 </i>
    <i name="e_wo_entrp">   -359.74968544 </i>
    <i name="e_0_energy">   -359.74976472 </i>
   </energy>
  </scstep>
  <scstep>
   <time name="diag">    0.16    0.16</time>
   <time name="diis">    0.42    0.42</time>
   <time name="orth">    0.04    0.04</time>
   <time name="total">    0.70    0.70</time>
   <energy>
    <i name="e_fr_energy">   -359.73387789 </i>
    <i name="e_wo_entrp">   -359.73370974 </i>
    <i name="e_0_energy">   -359.73379381 </i>
   </energy>
  </scstep>
  <scstep>
   <time name="diag">    0.16    0.16</time>
   <time name="diis">    0.42    0.42</time>
   <time name="orth">    0.04    0.04</time>
   <time name="total">    0.70    0.70</time>
   <energy>
    <i name="e_fr_energy">   -359.71944395 </i>
    <i name="e_wo_entrp">   -359.71927518 </i>
    <i name="e_0_energy">   -359.71935957 </i>
   </energy>
  </scstep>
  <scstep>
   <time name="diag">    0.17    0.17</time>
   <time name="diis">    0.43    0.43</time>
   <time name="orth">    0.04    0.04</time>
   <time name="total">    0.72    0.72</time>
   <energy>
    <i name="e_fr_energy">   -359.71659755 </i>
    <i name="e_wo_entrp">   -359.71642947 </i>
    <i name="e_0_energy">   -359.71651351 </i>
   </energy>
  </scstep>
  <scstep>
   <time name="diag">    0.17    0.17</time>
   <time name="diis">    0.42    0.42</time>
   <time name="orth">    0.04    0.04</time>
   <time name="total">    0.70    0.70</time>
   <energy>
    <i name="e_fr_energy">   -359.71628491 </i>
    <i name="e_wo_entrp">   -359.71611694 </i>
    <i name="e_0_energy">   -359.71620092 </i>
   </energy>
  </scstep>
  <scstep>
   <time name="diag">    0.16    0.16</time>
   <time name="diis">    0.42    0.42</time>
   <time name="orth">    0.04    0.04</time>
   <time name="total">    0.70    0.70</time>
   <energy>
    <i name="e_fr_energy">   -359.71628799 </i>
    <i name="e_wo_entrp">   -359.71612033 </i>
    <i name="e_0_energy">   -359.71620416 </i>
   </energy>
  </scstep>
  <scstep>
   <time name="diag">    0.17    0.17</time>
   <time name="diis">    0.39    0.39</time>
   <time name="orth">    0.04    0.04</time>
   <time name="total">    0.67    0.68</time>
   <energy>
    <i name="e_fr_energy">   -359.71628568 </i>
    <i name="e_wo_entrp">   -359.71611798 </i>
    <i name="e_0_energy">   -359.71620183 </i>
   </energy>
  </scstep>
  <scstep>
   <time name="diag">    0.16    0.16</time>
   <time name="diis">    0.34    0.34</time>
   <time name="orth">    0.04    0.04</time>
   <time name="total">    0.57    0.57</time>
   <energy>
    <i name="alphaZ">    107.59920118 </i>
    <i name="ewald">  -7312.82194087 </i>
    <i name="hartreedc">   -479.53686921 </i>
    <i name="XCdc">   -537.37620691 </i>
    <i name="pawpsdc">  33656.84524333 </i>
    <i name="pawaedc"> -32557.87765216 </i>
    <i name="eentropy">     -0.00016765 </i>
    <i name="bandstr">    198.91202919 </i>
    <i name="atom">   6564.54007760 </i>
    <i name="e_fr_energy">   -359.71628550 </i>
    <i name="e_wo_entrp">   -359.71611785 </i>
    <i name="e_0_energy">   -359.71620167 </i>
   </energy>
  </scstep>
  <structure>
   <crystal>
    <varray name="basis" >
     <v>      10.86180000       0.00000000       0.00000000 </v>
     <v>       0.00000000      10.86180000       0.00000000 </v>
     <v>       0.00000000       0.00000000      10.86180000 </v>
    </varray>
    <i name="volume">   1281.46103541 </i>
    <varray name="rec_basis" >
     <v>       0.09206577       0.00000000       0.00000000 </v>
     <v>       0.00000000       0.09206577       0.00000000 </v>
     <v>       0.00000000       0.00000000       0.09206577 </v>
    </varray>
   </crystal>
   <varray name="positions" >
    <v>       0.00000000       0.00000000       0.00000000 </v>
    <v>       0.50000000       0.00000000       0.00000000 </v>
    <v>       0.00000000       0.50000000       0.00000000 </v>
    <v>       0.50000000       0.50000000       0.00000000 </v>
    <v>       0.00000000       0.00000000       0.50000000 </v>
    <v>       0.50000000       0.00000000       0.50000000 </v>
    <v>       0.00000000       0.50000000       0.50000000 </v>
    <v>       0.50000000       0.50000000       0.50000000 </v>
    <v>       0.37500000       0.12500000       0.37500000 </v>
    <v>       0.87500000       0.12500000       0.37500000 </v>
    <v>       0.37500000       0.62500000       0.37500000 </v>
    <v>       0.87500000       0.62500000       0.37500000 </v>
    <v>       0.37500000       0.12500000       0.87500000 </v>
    <v>       0.87500000       0.12500000       0.87500000 </v>
    <v>       0.37500000       0.62500000       0.87500000 </v>
    <v>       0.87500000       0.62500000       0.87500000 </v>
    <v>       0.00000000       0.25000000       0.25000000 </v>
    <v>       0.50000000       0.25000000       0.25000000 </v>
    <v>       0.00000000       0.75000000       0.25000000 </v>
    <v>       0.50000000       0.75000000       0.25000000 </v>
    <v>       0.00000000       0.25000000       0.75000000 </v>
    <v>       0.50000000       0.25000000       0.75000000 </v>
    <v>       0.00000000       0.75000000       0.75000000 </v>
    <v>       0.50000000       0.75000000       0.75000000 </v>
    <v>       0.37500000       0.37500000       0.12500000 </v>
    <v>       0.87500000       0.37500000       0.12500000 </v>
    <v>       0.37500000       0.87500000       0.12500000 </v>
    <v>       0.87500000       0.87500000       0.12500000 </v>
    <v>       0.37500000       0.37500000       0.62500000 </v>
    <v>       0.87500000       0.37500000       0.62500000 </v>
    <v>       0.37500000       0.87500000       0.62500000 </v>
    <v>       0.87500000       0.87500000       0.62500000 </v>
    <v>       0.25000000       0.00000000       0.25000000 </v>
    <v>       0.75000000       0.00000000       0.25000000 </v>
    <v>       0.25000000       0.50000000       0.25000000 </v>
    <v>       0.75000000       0.50000000       0.25000000 </v>
    <v>       0.25000000       0.00000000       0.75000000 </v>
    <v>       0.75000000       0.00000000       0.75000000 </v>
    <v>       0.25000000       0.50000000       0.75000000 </v>
    <v>       0.75000000       0.50000000       0.75000000 </v>
    <v>       0.12500000       0.12500000       0.12500000 </v>
    <v>       0.62500000       0.12500000       0.12500000 </v>
    <v>       0.12500000       0.62500000       0.12500000 </v>
    <v>       0.62500000       0.62500000       0.12500000 </v>
    <v>       0.12500000       0.12500000       0.62500000 </v>
    <v>       0.62500000       0.12500000       0.62500000 </v>
    <v>       0.12500000       0.62500000       0.62500000 </v>
    <v>       0.62500000       0.62500000       0.62500000 </v>
    <v>       0.25000000       0.25000000       0.00000000 </v>
    <v>       0.75000000       0.25000000       0.00000000 </v>
    <v>       0.25000000       0.75000000       0.00000000 </v>
    <v>       0.75000000       0.75000000       0.00000000 </v>
    <v>       0.25000000       0.25000000       0.50000000 </v>
    <v>       0.75000000       0.25000000       0.50000000 </v>
    <v>       0.25000000       0.75000000       0.50000000 </v>
    <v>       0.75000000       0.75000000       0.50000000 </v>
    <v>       0.12500000       0.37500000       0.37500000 </v>
    <v>       0.62500000       0.37500000       0.37500000 </v>
    <v>       0.12500000       0.87500000       0.37500000 </v>
    <v>       0.62500000       0.87500000       0.37500000 </v>
    <v>       0.12500000       0.37500000       0.87500000 </v>
    <v>       0.62500000       0.37500000       0.87500000 </v>
    <v>       0.12500000       0.87500000       0.87500000 </v>
    <v>       0.62500000       0.87500000       0.87500000 </v>
   </varray>
  </structure>
  <varray name="forces" >
   <v>       0.00002173      -0.00000251       0.00003744 </v>
   <v>       0.00003854       0.00004410      -0.00002207 </v>
   <v>      -0.00000294       0.00000322      -0.00004961 </v>
   <v>       0.00001664       0.00001250      -0.00000739 </v>
   <v>       0.00003154       0.00002392       0.00001175 </v>
   <v>      -0.00004036      -0.00008106       0.00000064 </v>
   <v>      -0.00004128       0.00004314      -0.00001647 </v>
   <v>       0.00001378      -0.00001769       0.00005638 </v>
   <v>       0.04515994      -0.04520478       0.04517045 </v>
   <v>       0.04516626      -0.04518042       0.04527459 </v>
   <v>       0.04513822      -0.04518264       0.04521965 </v>
   <v>       0.04523709      -0.04520515       0.04518704 </v>
   <v>       0.04515299      -0.04511376       0.04515144 </v>
   <v>       0.04523470      -0.04520000       0.04516211 </v>
   <v>       0.04520970      -0.04523628       0.04521124 </v>
   <v>       0.04522094      -0.04521066       0.04519315 </v>
   <v>      -0.00001635       0.00007662       0.00000282 </v>
   <v>       0.00002331       0.00000153       0.00000976 </v>
   <v>      -0.00000180      -0.00002295       0.00003489 </v>
   <v>      -0.00002477      -0.00003152       0.00000496 </v>
   <v>       0.00005803       0.00001757      -0.00002941 </v>
   <v>       0.00002655      -0.00000254      -0.00000676 </v>
   <v>       0.00005335      -0.00002211      -0.00000067 </v>
   <v>      -0.00005831      -0.00002561      -0.00000740 </v>
   <v>       0.04516027       0.04520915      -0.04517729 </v>
   <v>       0.04521099       0.04513635      -0.04515177 </v>
   <v>       0.04516190       0.04513119      -0.04517120 </v>
   <v>       0.04515046       0.04520084      -0.04520744 </v>
   <v>       0.04523381       0.04523855      -0.04523338 </v>
   <v>       0.04516528       0.04522388      -0.04521714 </v>
   <v>       0.04513577       0.04521206      -0.04522780 </v>
   <v>       0.04524378       0.04519741      -0.04512462 </v>
   <v>       0.00003751       0.00001264      -0.00004853 </v>
   <v>      -0.00000840      -0.00006748      -0.00000758 </v>
   <v>      -0.00003471      -0.00001402       0.00002626 </v>
   <v>      -0.00001359       0.00005441      -0.00000732 </v>
   <v>       0.00003769       0.00003485      -0.00003751 </v>
   <v>      -0.00000342      -0.00000420       0.00002193 </v>
   <v>       0.00000683      -0.00002049       0.00003461 </v>
   <v>      -0.00000379       0.00000486       0.00000067 </v>
   <v>      -0.04518094      -0.04523123      -0.04519544 </v>
   <v>      -0.04526976      -0.04522792      -0.04518734 </v>
   <v>      -0.04516036      -0.04520474      -0.04518545 </v>
   <v>      -0.04520062      -0.04520928      -0.04517180 </v>
   <v>      -0.04516744      -0.04515516      -0.04515706 </v>
   <v>      -0.04519423      -0.04515329      -0.04516319 </v>
   <v>      -0.04518509      -0.04519655      -0.04521561 </v>
   <v>      -0.04524440      -0.04519431      -0.04520654 </v>
   <v>       0.00005024       0.00002979      -0.00008047 </v>
   <v>       0.00001021       0.00004621       0.00001330 </v>
   <v>       0.00001647      -0.00002513       0.00000526 </v>
   <v>       0.00001682       0.00005285      -0.00003642 </v>
   <v>      -0.00002268       0.00002989       0.00000779 </v>
   <v>      -0.00003446       0.00000457       0.00001235 </v>
   <v>       0.00004896       0.00000704       0.00003168 </v>
   <v>      -0.00005426      -0.00009066       0.00001979 </v>
   <v>      -0.04520241       0.04520547       0.04516074 </v>
   <v>      -0.04518593       0.04516534       0.04520400 </v>
   <v>      -0.04519977       0.04518582       0.04522490 </v>
   <v>      -0.04525200       0.04521745       0.04520293 </v>
   <v>      -0.04514555       0.04519319       0.04518376 </v>
   <v>      -0.04524125       0.04521471       0.04518461 </v>
   <v>      -0.04512733       0.04513647       0.04518426 </v>
   <v>      -0.04520752       0.04518367       0.04518934 </v>
  </varray>
  <varray name="stress" >
   <v>      10.25069847      -0.00010898       0.00011706 </v>
   <v>      -0.00010933      10.25072567       0.00024351 </v>
   <v>       0.00011698       0.00024341      10.25069420 </v>
  </varray>
  <energy>
   <i name="e_fr_energy">   -359.71628550 </i>
   <i name="e_wo_entrp">   -359.71620167 </i>
   <i name="e_0_energy">     -0.00016765 </i>
   <i name="kinetic">      4.88605769 </i>
   <i name="lattice kinetic">      0.00000000 </i>
   <i name="nosepot">      0.00000000 </i>
   <i name="nosekinetic">      0.00000000 </i>
   <i name="total">   -354.83022781 </i>
  </energy>
  <time name="totalsc">    8.82    8.83</time>
 </calculation>
 <calculation>
  <scstep>
   <time name="diag">    0.17    0.17</time>
   <time name="diis">    0.42    0.42</time>
   <time name="orth">    0.04    0.04</time>
   <time name="total">    0.70    0.70</time>
   <energy>
    <i name="alphaZ">    107.59920118 </i>
    <i name="ewald">  -7312.06033924 </i>
    <i name="hartreedc">   -479.90149776 </i>
    <i name="XCdc">   -537.38651165 </i>
    <i name="pawpsdc">  33656.53247462 </i>
    <i name="pawaedc"> -32557.56488435 </i>
    <i name="eentropy">     -0.00032970 </i>
    <i name="bandstr">    198.74963333 </i>
    <i name="atom">   6564.54007760 </i>
    <i name="e_fr_energy">   -359.49217598 </i>
    <i name="e_wo_entrp">   -359.49184629 </i>
    <i name="e_0_energy">   -359.49201113 </i>
   </energy>
  </scstep>
  <scstep>
   <time name="diag">    0.16    0.16</time>
   <time name="diis">    0.43    0.43</time>
   <time name="orth">    0.04    0.04</time>
   <time name="total">    0.71    0.71</time>
   <energy>
    <i name="e_fr_energy">   -359.50285173 </i>
    <i name="e_wo_entrp">   -359.50252177 </i>
    <i name="e_0_energy">   -359.50268675 </i>
   </energy>
  </scstep>
  <scstep>
   <time name="diag">    0.16    0.16</time>
   <time name="diis">    0.43    0.43</time>
   <time name="orth">    0.04    0.04</time>
   <time name="total">    0.71    0.71</time>
   <energy>
    <i name="e_fr_energy">   -359.49760809 </i>
    <i name="e_wo_entrp">   -359.49728633 </i>
    <i name="e_0_energy">   -359.49744721 </i>
   </energy>
  </scstep>
  <scstep>
   <time name="diag">    0.16    0.16</time>
   <time name="diis">    0.42    0.42</time>
   <time name="orth">    0.04    0.04</time>
   <time name="total">    0.70    0.70</time>
   <energy>
    <i name="e_fr_energy">   -359.49692803 </i>
    <i name="e_wo_entrp">   -359.49661355 </i>
    <i name="e_0_energy">   -359.49677079 </i>
   </energy>
  </scstep>
  <scstep>
   <time name="diag">    0.16    0.16</time>
   <time name="diis">    0.44    0.44</time>
   <time name="orth">    0.04    0.04</time>
   <time name="total">    0.72    0.72</time>
   <energy>
    <i name="e_fr_energy">   -359.49681175 </i>
    <i name="e_wo_entrp">   -359.49649705 </i>
    <i name="e_0_energy">   -359.49665440 </i>
   </energy>
  </scstep>
  <scstep>
   <time name="diag">    0.16    0.16</time>
   <time name="diis">    0.42    0.42</time>
   <time name="orth">    0.04    0.04</time>
   <time name="total">    0.70    0.70</time>
   <energy>
    <i name="e_fr_energy">   -359.49680113 </i>
    <i name="e_wo_entrp">   -359.49648592 </i>
    <i name="e_0_energy">   -359.49664353 </i>
   </energy>
  </scstep>
  <scstep>
   <time name="diag">    0.16    0.17</time>
   <time name="diis">    0.38    0.38</time>
   <time name="orth">    0.04    0.04</time>
   <time name="total">    0.61    0.62</time>
   <energy>
    <i name="alphaZ">    107.59920118 </i>
    <i name="ewald">  -7312.06033924 </i>
    <i name="hartreedc">   -479.92968782 </i>
    <i name="XCdc">   -537.38246649 </i>
    <i name="pawpsdc">  33684.90901572 </i>
    <i name="pawaedc"> -32585.94924771 </i>
    <i name="eentropy">     -0.00031525 </i>
    <i name="bandstr">    198.77696115 </i>
    <i name="atom">   6564.54007760 </i>
    <i name="e_fr_energy">   -359.49680087 </i>
    <i name="e_wo_entrp">   -359.49648562 </i>
    <i name="e_0_energy">   -359.49664324 </i>
   </energy>
  </scstep>
  <structure>
   <crystal>
    <varray name="basis" >
     <v>      10.86180000       0.00000000       0.00000000 </v>
     <v>       0.00000000      10.86180000       0.00000000 </v>
     <v>       0.00000000       0.00000000      10.86180000 </v>
    </varray>
    <i name="volume">   1281.46103541 </i>
    <varray name="rec_basis" >
     <v>       0.09206577       0.00000000       0.00000000 </v>
     <v>       0.00000000       0.09206577       0.00000000 </v>
     <v>       0.00000000       0.00000000       0.09206577 </v>
    </varray>
   </crystal>
   <varray name="positions" >
    <v>       0.99987673       0.00029387       0.00018090 </v>
    <v>       0.49871926       0.00141480       0.99867589 </v>
    <v>       0.00117466       0.50035915       0.99838150 </v>
    <v>       0.49998213       0.49948402       0.00010305 </v>
    <v>       0.00153733       0.99951370       0.49891261 </v>
    <v>       0.49934850       0.99973813       0.49944361 </v>
    <v>       0.00004912       0.49971832       0.49849472 </v>
    <v>       0.49953263       0.50006197       0.50031375 </v>
    <v>       0.37486693       0.12618433       0.37459146 </v>
    <v>       0.87297281       0.12661803       0.37340454 </v>
    <v>       0.37543191       0.62663690       0.37426609 </v>
    <v>       0.87447545       0.62551404       0.37616061 </v>
    <v>       0.37690476       0.12490002       0.87649358 </v>
    <v>       0.87563245       0.12398620       0.87405739 </v>
    <v>       0.37413580       0.62598955       0.87393031 </v>
    <v>       0.87328654       0.62415202       0.87548936 </v>
    <v>       0.00042895       0.25014083       0.24993369 </v>
    <v>       0.50210669       0.25022814       0.24952194 </v>
    <v>       0.99860909       0.75087889       0.24954778 </v>
    <v>       0.50002860       0.75119351       0.25175835 </v>
    <v>       0.00146789       0.24943126       0.74855231 </v>
    <v>       0.49899713       0.25158472       0.75047119 </v>
    <v>       0.99878952       0.75052684       0.74936867 </v>
    <v>       0.50013176       0.75068163       0.74949260 </v>
    <v>       0.37530436       0.37436910       0.12664994 </v>
    <v>       0.87793061       0.37478452       0.12618485 </v>
    <v>       0.37172699       0.87528195       0.12414189 </v>
    <v>       0.87583447       0.87385557       0.12684647 </v>
    <v>       0.37730626       0.37728624       0.62545400 </v>
    <v>       0.87540408       0.37535937       0.62358039 </v>
    <v>       0.37538275       0.87668906       0.62507741 </v>
    <v>       0.87579614       0.87547953       0.62692847 </v>
    <v>       0.25058974       0.99717532       0.25204621 </v>
    <v>       0.74945013       0.00077999       0.24986412 </v>
    <v>       0.24984745       0.50176627       0.24912519 </v>
    <v>       0.74984969       0.49826793       0.24864375 </v>
    <v>       0.25062695       0.00111825       0.74948184 </v>
    <v>       0.74922056       0.99929320       0.75081838 </v>
    <v>       0.25016884       0.50009115       0.75010495 </v>
    <v>       0.74908219       0.49986793       0.75150690 </v>
    <v>       0.12614995       0.12257361       0.12626635 </v>
    <v>       0.62576228       0.12578718       0.12720745 </v>
    <v>       0.12472986       0.62567878       0.12456126 </v>
    <v>       0.62521733       0.62384848       0.12639376 </v>
    <v>       0.12486692       0.12450867       0.62390494 </v>
    <v>       0.62515836       0.12352905       0.62456198 </v>
    <v>       0.12521466       0.62473899       0.62655738 </v>
    <v>       0.62302195       0.62582537       0.62570524 </v>
    <v>       0.25008803       0.24953139       0.00062137 </v>
    <v>       0.74624294       0.24996543       0.99824563 </v>
    <v>       0.25043209       0.74825125       0.99767245 </v>
    <v>       0.75027917       0.74791754       0.99977067 </v>
    <v>       0.24943140       0.24969308       0.50248149 </v>
    <v>       0.75086060       0.25077448       0.50017881 </v>
    <v>       0.24985527       0.74964952       0.50022532 </v>
    <v>       0.75043776       0.74962649       0.49833017 </v>
    <v>       0.12505252       0.37504292       0.37630830 </v>
    <v>       0.62566419       0.37424278       0.37427196 </v>
    <v>       0.12359225       0.87504048       0.37439350 </v>
    <v>       0.62386030       0.87483094       0.37548033 </v>
    <v>       0.12475083       0.37470706       0.87351544 </v>
    <v>       0.62675372       0.37686746       0.87735023 </v>
    <v>       0.12483079       0.87416838       0.87350084 </v>
    <v>       0.62573905       0.87250440       0.87449445 </v>
   </varray>
  </structure>
  <varray name="forces" >
   <v>       0.04922206      -0.15483973       0.04358724 </v>
   <v>       0.40497055      -0.39088726       0.40714907 </v>
   <v>      -0.14988223      -0.05717265       0.13777292 </v>
   <v>      -0.15788861       0.13042791       0.08933017 </v>
   <v>      -0.44232579       0.18687579       0.03871295 </v>
   <v>       0.00398507       0.12696448      -0.02756004 </v>
   <v>       0.05148724       0.20091067       0.22909399 </v>
   <v>       0.11329902       0.11830939      -0.29385135 </v>
   <v>       0.05120652      -0.04674109       0.07663763 </v>
   <v>       0.33058416      -0.19597297       0.23416978 </v>
   <v>      -0.07396515      -0.21348507       0.18823431 </v>
   <v>       0.02018831      -0.22891462      -0.36920917 </v>
   <v>      -0.35946815       0.21457824      -0.29206880 </v>
   <v>      -0.14093177       0.20991649       0.12294742 </v>
   <v>       0.32107077      -0.27261983       0.04119096 </v>
   <v>       0.33206727       0.04272304      -0.13949161 </v>
   <v>       0.17163220      -0.15371064       0.07947325 </v>
   <v>      -0.23382274      -0.00221682       0.17481149 </v>
   <v>       0.16877698      -0.26037085       0.15896641 </v>
   <v>      -0.06043900       0.02200480      -0.41481325 </v>
   <v>      -0.21194834       0.00322777      -0.02675289 </v>
   <v>       0.39859307      -0.03920160       0.05754903 </v>
   <v>       0.06381898      -0.24480327       0.20629641 </v>
   <v>      -0.18658058      -0.00347109       0.03956789 </v>
   <v>      -0.02688376       0.13422363      -0.22500498 </v>
   <v>      -0.35580469      -0.04802869      -0.53979370 </v>
   <v>       0.44552442      -0.11712083      -0.08665017 </v>
   <v>      -0.29239984       0.28874175      -0.42522082 </v>
   <v>      -0.33999048      -0.20404347      -0.06233882 </v>
   <v>       0.02644313       0.10472792       0.24555872 </v>
   <v>      -0.07891531      -0.15546875      -0.08954898 </v>
   <v>      -0.14583566       0.04496876      -0.46858546 </v>
   <v>      -0.09380877       0.30498128      -0.05163426 </v>
   <v>       0.05710633      -0.29385474       0.10102658 </v>
   <v>      -0.01651252      -0.13968015       0.17210207 </v>
   <v>       0.22857149       0.11288078       0.20330143 </v>
   <v>      -0.03269365      -0.04510462       0.17257210 </v>
   <v>       0.11825609       0.00523728      -0.07813604 </v>
   <v>       0.02377835      -0.02779552      -0.01007487 </v>
   <v>       0.08595882       0.02396717      -0.30755792 </v>
   <v>      -0.07627774       0.14719404      -0.04254959 </v>
   <v>      -0.22856223      -0.23575273      -0.47153165 </v>
   <v>      -0.06960091      -0.01943745      -0.13618916 </v>
   <v>      -0.20312322       0.12217381      -0.12662701 </v>
   <v>       0.01538001      -0.11629306       0.09807662 </v>
   <v>      -0.12446639       0.25535312       0.05946057 </v>
   <v>      -0.15537096      -0.04192279      -0.25324607 </v>
   <v>       0.29398075      -0.14549969      -0.17858120 </v>
   <v>      -0.03075843       0.01052817       0.01294371 </v>
   <v>       0.78708743      -0.07571026       0.39572790 </v>
   <v>      -0.24715266       0.19746282       0.18155252 </v>
   <v>      -0.03076561       0.12138865       0.28959638 </v>
   <v>       0.23391782       0.21409732      -0.12801505 </v>
   <v>      -0.23890641      -0.18293255       0.02299972 </v>
   <v>      -0.04337708       0.14128357       0.04553418 </v>
   <v>      -0.09944095       0.15264550       0.45920021 </v>
   <v>       0.12193865       0.01581284      -0.18520148 </v>
   <v>      -0.08675222       0.15546047       0.22130865 </v>
   <v>       0.14043731      -0.21650193       0.17033153 </v>
   <v>       0.18968250       0.20711422       0.00409993 </v>
   <v>       0.14316253      -0.05421139       0.16006767 </v>
   <v>      -0.48443235      -0.12596494      -0.36372794 </v>
   <v>       0.00318221       0.18820636       0.11003691 </v>
   <v>      -0.15908230       0.24857944       0.24582600 </v>
  </varray>
  <varray name="stress" >
   <v>       9.54362452      -1.95765938      -0.27066134 </v>
   <v>      -1.95765986      10.01741766      -0.83843616 </v>
   <v>      -0.27066122      -0.83843631       9.97217756 </v>
  </varray>
  <energy>
   <i name="e_fr_energy">   -359.49680087 </i>
   <i name="e_wo_entrp">   -359.49664324 </i>
   <i name="e_0_energy">     -0.00031525 </i>
   <i name="kinetic">      4.68245885 </i>
   <i name="lattice kinetic">      0.00000000 </i>
   <i name="nosepot">     -0.00001863 </i>
   <i name="nosekinetic">      0.00000001 </i>
   <i name="total">   -354.81436064 </i>
  </energy>
  <time name="totalsc">    6.00    6.01</time>
 </calculation>
 <calculation>
  <scstep>
   <time name="diag">    0.16    0.16</time>
   <time name="diis">    0.42    0.42</time>
   <time name="orth">    0.04    0.04</time>
   <time name="total">    0.70    0.70</time>
   <energy>
    <i name="alphaZ">    107.59920118 </i>
    <i name="ewald">  -7309.97058858 </i>
    <i name="hartreedc">   -481.19470156 </i>
    <i name="XCdc">   -537.38398437 </i>
    <i name="pawpsdc">  33717.50273004 </i>
    <i name="pawaedc"> -32618.55098476 </i>
    <i name="eentropy">     -0.00112443 </i>
    <i name="bandstr">    198.52741618 </i>
    <i name="atom">   6564.54007760 </i>
    <i name="e_fr_energy">   -358.93195871 </i>
    <i name="e_wo_entrp">   -358.93083428 </i>
    <i name="e_0_energy">   -358.93139649 </i>
   </energy>
  </scstep>
  <scstep>
   <time name="diag">    0.16    0.16</time>
   <time name="diis">    0.42    0.42</time>
   <time name="orth">    0.04    0.04</time>
   <time name="total">    0.71    0.71</time>
   <energy>
    <i name="e_fr_energy">   -358.93208749 </i>
    <i name="e_wo_entrp">   -358.93097038 </i>
    <i name="e_0_energy">   -358.93152893 </i>
   </energy>
  </scstep>
  <scstep>
   <time name="diag">    0.16    0.16</time>
   <time name="diis">    0.45    0.45</time>
   <time name="orth">    0.04    0.04</time>
   <time name="total">    0.74    0.74</time>
   <energy>
    <i name="e_fr_energy">   -358.93208527 </i>
    <i name="e_wo_entrp">   -358.93097215 </i>
    <i name="e_0_energy">   -358.93152871 </i>
   </energy>
  </scstep>
  <scstep>
   <time name="diag">    0.16    0.16</time>
   <time name="diis">    0.42    0.42</time>
   <time name="orth">    0.04    0.04</time>
   <time name="total">    0.70    0.70</time>
   <energy>
    <i name="e_fr_energy">   -358.93208612 </i>
    <i name="e_wo_entrp">   -358.93097458 </i>
    <i name="e_0_energy">   -358.93153035 </i>
   </energy>
  </scstep>
  <scstep>
   <time name="diag">    0.16    0.16</time>
   <time name="diis">    0.38    0.38</time>
   <time name="orth">    0.05    0.05</time>
   <time name="total">    0.70    0.70</time>
   <energy>
    <i name="e_fr_energy">   -358.93208801 </i>
    <i name="e_wo_entrp">   -358.93097713 </i>
    <i name="e_0_energy">   -358.93153257 </i>
   </energy>
  </scstep>
  <scstep>
   <time name="diag">    0.20    0.20</time>
   <time name="diis">    0.29    0.29</time>
   <time name="orth">    0.04    0.04</time>
   <time name="total">    0.57    0.57</time>
   <energy>
    <i name="alphaZ">    107.59920118 </i>
    <i name="ewald">  -7309.97058858 </i>
    <i name="hartreedc">   -481.00726710 </i>
    <i name="XCdc">   -537.39947467 </i>
    <i name="pawpsdc">  33709.27279125 </i>
    <i name="pawaedc"> -32610.33004782 </i>
    <i name="eentropy">     -0.00111098 </i>
    <i name="bandstr">    198.36433075 </i>
    <i name="atom">   6564.54007760 </i>
    <i name="e_fr_energy">   -358.93208838 </i>
    <i name="e_wo_entrp">   -358.93097740 </i>
    <i name="e_0_energy">   -358.93153289 </i>
   </energy>
  </scstep>
  <structure>
   <crystal>
    <varray name="basis" >
     <v>      10.86180000       0.00000000       0.00000000 </v>
     <v>       0.00000000      10.86180000       0.00000000 </v>
     <v>       0.00000000       0.00000000      10.86180000 </v>
    </varray>
    <i name="volume">   1281.46103541 </i>
    <varray name="rec_basis" >
     <v>       0.09206577       0.00000000       0.00000000 </v>
     <v>       0.00000000       0.09206577       0.00000000 </v>
     <v>       0.00000000       0.00000000       0.09206577 </v>
    </varray>
   </crystal>
   <varray name="positions" >
    <v>       0.99976873       0.00054391       0.00037465 </v>
    <v>       0.49755505       0.00271859       0.99746811 </v>
    <v>       0.00230792       0.50070229       0.99680265 </v>
    <v>       0.49992058       0.49900542       0.00023195 </v>
    <v>       0.00295000       0.99908086       0.49783667 </v>
    <v>       0.49869939       0.99951265       0.49887981 </v>
    <v>       0.00011415       0.49949409       0.49705508 </v>
    <v>       0.49909877       0.50015788       0.50054428 </v>
    <v>       0.37474969       0.12735560       0.37420516 </v>
    <v>       0.87104097       0.12818054       0.37187616 </v>
    <v>       0.37584402       0.62821329       0.37358619 </v>
    <v>       0.87395791       0.62596318       0.37721656 </v>
    <v>       0.37870846       0.12486137       0.87790447 </v>
    <v>       0.87622604       0.12303241       0.87315021 </v>
    <v>       0.37336426       0.62690174       0.87287277 </v>
    <v>       0.87166886       0.62331645       0.87593944 </v>
    <v>       0.00090802       0.25023815       0.24989044 </v>
    <v>       0.50414809       0.25045590       0.24909408 </v>
    <v>       0.99726747       0.75168391       0.24914124 </v>
    <v>       0.50004124       0.75239354       0.25339905 </v>
    <v>       0.00287671       0.24886370       0.74709743 </v>
    <v>       0.49810898       0.25315853       0.75095919 </v>
    <v>       0.99759845       0.75098424       0.74879650 </v>
    <v>       0.50021167       0.75136252       0.74899690 </v>
    <v>       0.37560232       0.37377666       0.12823627 </v>
    <v>       0.88076120       0.37455561       0.12721648 </v>
    <v>       0.36858205       0.87553081       0.12325954 </v>
    <v>       0.87658697       0.87279359       0.12857234 </v>
    <v>       0.37951700       0.37951466       0.62589069 </v>
    <v>       0.87581695       0.37574881       0.62223112 </v>
    <v>       0.37574429       0.87833413       0.62512976 </v>
    <v>       0.87655203       0.87597212       0.62872399 </v>
    <v>       0.25115404       0.99443769       0.25407817 </v>
    <v>       0.74891777       0.00147658       0.24975744 </v>
    <v>       0.24969145       0.50349303       0.24829979 </v>
    <v>       0.74976570       0.49656824       0.24734579 </v>
    <v>       0.25124585       0.00222393       0.74901324 </v>
    <v>       0.74847603       0.99858815       0.75161495 </v>
    <v>       0.25034570       0.50017463       0.75020747 </v>
    <v>       0.74819010       0.49974294       0.75292669 </v>
    <v>       0.12727945       0.12018937       0.12752103 </v>
    <v>       0.62646076       0.12650751       0.12928111 </v>
    <v>       0.12444116       0.62635229       0.12408418 </v>
    <v>       0.62537810       0.62273198       0.12775192 </v>
    <v>       0.12473947       0.12398449       0.62283824 </v>
    <v>       0.62528255       0.12213103       0.62414131 </v>
    <v>       0.12538635       0.62446631       0.62804311 </v>
    <v>       0.62112884       0.62660958       0.62636009 </v>
    <v>       0.25016855       0.24906603       0.00124686 </v>
    <v>       0.74271118       0.24990956       0.99660434 </v>
    <v>       0.25079508       0.74655896       0.99539700 </v>
    <v>       0.75055084       0.74586988       0.99962422 </v>
    <v>       0.24893064       0.24944736       0.50492697 </v>
    <v>       0.75165444       0.25149714       0.50036460 </v>
    <v>       0.24969944       0.74933951       0.50046403 </v>
    <v>       0.75084847       0.74929669       0.49679147 </v>
    <v>       0.12514100       0.37509059       0.37756431 </v>
    <v>       0.62630496       0.37353007       0.37360735 </v>
    <v>       0.12222573       0.87501958       0.37383591 </v>
    <v>       0.62277586       0.87472109       0.37596225 </v>
    <v>       0.12454367       0.37439894       0.87207688 </v>
    <v>       0.62837080       0.37869932       0.87959737 </v>
    <v>       0.12466374       0.87339058       0.87203344 </v>
    <v>       0.62643407       0.87007980       0.87405931 </v>
   </varray>
  </structure>
  <varray name="forces" >
   <v>       0.11950043      -0.35040212       0.05741373 </v>
   <v>       0.77616644      -0.78020893       0.80125620 </v>
   <v>      -0.25729042      -0.10181735       0.26962717 </v>
   <v>      -0.30142328       0.33241243       0.17675372 </v>
   <v>      -0.84373441       0.35184523       0.07958016 </v>
   <v>       0.06522297       0.28715155      -0.01519810 </v>
   <v>       0.08161031       0.36888546       0.48477162 </v>
   <v>       0.30415826       0.27135501      -0.59370362 </v>
   <v>       0.05309216      -0.10007431       0.13629320 </v>
   <v>       0.62165838      -0.29493294       0.38160109 </v>
   <v>      -0.19286781      -0.35409396       0.31144139 </v>
   <v>       0.07125095      -0.44724968      -0.73054929 </v>
   <v>      -0.73951962       0.51397743      -0.64412188 </v>
   <v>      -0.31930109       0.42093791       0.15632469 </v>
   <v>       0.62033389      -0.50759577       0.00383963 </v>
   <v>       0.58618954       0.11370886      -0.27884255 </v>
   <v>       0.33267323      -0.30811140       0.16516087 </v>
   <v>      -0.53927903      -0.00879086       0.35756137 </v>
   <v>       0.35032757      -0.54750841       0.36488757 </v>
   <v>      -0.11031723       0.00719898      -0.84374284 </v>
   <v>      -0.47089029       0.04409629      -0.00214925 </v>
   <v>       0.76230605      -0.18010269       0.16152858 </v>
   <v>       0.07173863      -0.45991312       0.35197436 </v>
   <v>      -0.34970230       0.09912318       0.02112824 </v>
   <v>      -0.08591625       0.21714060      -0.38233216 </v>
   <v>      -0.68020990      -0.04846253      -0.97144486 </v>
   <v>       0.85860442      -0.26416089      -0.13220370 </v>
   <v>      -0.60745573       0.53846197      -0.81659553 </v>
   <v>      -0.73712957      -0.47325401      -0.04315325 </v>
   <v>       0.02764408       0.16546062       0.50672754 </v>
   <v>      -0.16733590      -0.33690466      -0.12437398 </v>
   <v>      -0.33623213       0.11636547      -0.87587789 </v>
   <v>      -0.14525740       0.64977529      -0.16186671 </v>
   <v>       0.03159363      -0.48196366       0.16239888 </v>
   <v>       0.01721524      -0.30747843       0.37878658 </v>
   <v>       0.45342118       0.22770695       0.44008531 </v>
   <v>      -0.01692037      -0.01775018       0.28858703 </v>
   <v>       0.13108382      -0.04890236      -0.06412656 </v>
   <v>       0.04827193      -0.05946446      -0.02159492 </v>
   <v>       0.13317731       0.05941450      -0.63475547 </v>
   <v>      -0.12239618       0.30758027      -0.05683326 </v>
   <v>      -0.34936113      -0.37483839      -0.89795098 </v>
   <v>      -0.10532283      -0.01141329      -0.21253627 </v>
   <v>      -0.36467740       0.26437313      -0.18803531 </v>
   <v>       0.05791313      -0.20334578       0.22236415 </v>
   <v>      -0.19391866       0.49185679       0.15339623 </v>
   <v>      -0.28261396      -0.04834054      -0.45220903 </v>
   <v>       0.60932871      -0.29577471      -0.32166701 </v>
   <v>      -0.04458189      -0.02399296       0.07421143 </v>
   <v>       1.52459595      -0.24593470       0.75199278 </v>
   <v>      -0.46207163       0.49227512       0.42801596 </v>
   <v>      -0.11404307       0.26849647       0.61841410 </v>
   <v>       0.48882577       0.42089859      -0.33818583 </v>
   <v>      -0.32453518      -0.24551891       0.07936265 </v>
   <v>      -0.08317786       0.26225283       0.08979114 </v>
   <v>      -0.24752553       0.33170561       0.81922904 </v>
   <v>       0.26673728      -0.03660690      -0.40325616 </v>
   <v>      -0.08573685       0.27770745       0.41531271 </v>
   <v>       0.31684144      -0.48892591       0.28346188 </v>
   <v>       0.40788675       0.32103467      -0.02772705 </v>
   <v>       0.30247696      -0.12680559       0.29705579 </v>
   <v>      -0.97426462      -0.23143638      -0.75648349 </v>
   <v>       0.02906638       0.29842580       0.18075466 </v>
   <v>      -0.23053747       0.44983182       0.40269287 </v>
  </varray>
  <varray name="stress" >
   <v>      11.05984007      -4.17267812      -0.49249672 </v>
   <v>      -4.17267806      11.68352741      -1.37652429 </v>
   <v>      -0.49249643      -1.37652441      11.29175536 </v>
  </varray>
  <energy>
   <i name="e_fr_energy">   -358.93208838 </i>
   <i name="e_wo_entrp">   -358.93153289 </i>
   <i name="e_0_energy">     -0.00111098 </i>
   <i name="kinetic">      4.12750259 </i>
   <i name="lattice kinetic">      0.00000000 </i>
   <i name="nosepot">     -0.00291995 </i>
   <i name="nosekinetic">      0.00023645 </i>
   <i name="total">   -354.80726929 </i>
  </energy>
  <time name="totalsc">    5.27    5.28</time>
 </calculation>
 <calculation>
  <scstep>
   <time name="diag">    0.16    0.16</time>
   <time name="diis">    0.42    0.42</time>
   <time name="orth">    0.04    0.04</time>
   <time name="total">    0.70    0.70</time>
   <energy>
    <i name="alphaZ">    107.59920118 </i>
    <i name="ewald">  -7307.09789184 </i>
    <i name="hartreedc">   -482.30167997 </i>
    <i name="XCdc">   -537.43863783 </i>
    <i name="pawpsdc">  33719.72602900 </i>
    <i name="pawaedc"> -32620.81721632 </i>
    <i name="eentropy">     -0.00373827 </i>
    <i name="bandstr">    197.65988068 </i>
    <i name="atom">   6564.54007760 </i>
    <i name="e_fr_energy">   -358.13397577 </i>
    <i name="e_wo_entrp">   -358.13023750 </i>
    <i name="e_0_energy">   -358.13210664 </i>
   </energy>
  </scstep>
  <scstep>
   <time name="diag">    0.16    0.16</time>
   <time name="diis">    0.43    0.43</time>
   <time name="orth">    0.04    0.04</time>
   <time name="total">    0.71    0.71</time>
   <energy>
    <i name="e_fr_energy">   -358.13404851 </i>
    <i name="e_wo_entrp">   -358.13030838 </i>
    <i name="e_0_energy">   -358.13217844 </i>
   </energy>
  </scstep>
  <scstep>
   <time name="diag">    0.16    0.16</time>
   <time name="diis">    0.44    0.44</time>
   <time name="orth">    0.04    0.04</time>
   <time name="total">    0.72    0.72</time>
   <energy>
    <i name="e_fr_energy">   -358.13403491 </i>
    <i name="e_wo_entrp">   -358.13027816 </i>
    <i name="e_0_energy">   -358.13215654 </i>
   </energy>
  </scstep>
  <scstep>
   <time name="diag">    0.17    0.17</time>
   <time name="diis">    0.44    0.44</time>
   <time name="orth">    0.04    0.04</time>
   <time name="total">    0.72    0.72</time>
   <energy>
    <i name="e_fr_energy">   -358.13403308 </i>
    <i name="e_wo_entrp">   -358.13026868 </i>
    <i name="e_0_energy">   -358.13215088 </i>
   </energy>
  </scstep>
  <scstep>
   <time name="diag">    0.16    0.16</time>
   <time name="diis">    0.28    0.28</time>
   <time name="orth">    0.04    0.04</time>
   <time name="total">    0.58    0.58</time>
   <energy>
    <i name="e_fr_energy">   -358.13403187 </i>
    <i name="e_wo_entrp">   -358.13026659 </i>
    <i name="e_0_energy">   -358.13214923 </i>
   </energy>
  </scstep>
  <scstep>
   <time name="diag">    0.16    0.16</time>
   <time name="diis">    0.27    0.27</time>
   <time name="orth">    0.04    0.04</time>
   <time name="total">    0.50    0.50</time>
   <energy>
    <i name="alphaZ">    107.59920118 </i>
    <i name="ewald">  -7307.09789184 </i>
    <i name="hartreedc">   -482.47688011 </i>
    <i name="XCdc">   -537.42752971 </i>
    <i name="pawpsdc">  33750.61303245 </i>
    <i name="pawaedc"> -32651.69252630 </i>
    <i name="eentropy">     -0.00376469 </i>
    <i name="bandstr">    197.81224982 </i>
    <i name="atom">   6564.54007760 </i>
    <i name="e_fr_energy">   -358.13403160 </i>
    <i name="e_wo_entrp">   -358.13026691 </i>
    <i name="e_0_energy">   -358.13214926 </i>
   </energy>
  </scstep>
  <structure>
   <crystal>
    <varray name="basis" >
     <v>      10.86180000       0.00000000       0.00000000 </v>
     <v>       0.00000000      10.86180000       0.00000000 </v>
     <v>       0.00000000       0.00000000      10.86180000 </v>
    </varray>
    <i name="volume">   1281.46103541 </i>
    <varray name="rec_basis" >
     <v>       0.09206577       0.00000000       0.00000000 </v>
     <v>       0.00000000       0.09206577       0.00000000 </v>
     <v>       0.00000000       0.00000000       0.09206577 </v>
    </varray>
   </crystal>
   <varray name="positions" >
    <v>       0.99969632       0.00069362       0.00058538 </v>
    <v>       0.49661278       0.00380029       0.99648829 </v>
    <v>       0.00337021       0.50101592       0.99530017 </v>
    <v>       0.49977479       0.49862049       0.00041179 </v>
    <v>       0.00412489       0.99874723       0.49678328 </v>
    <v>       0.49807009       0.99936809       0.49831186 </v>
    <v>       0.00020409       0.49937405       0.49575315 </v>
    <v>       0.49875289       0.50033039       0.50060642 </v>
    <v>       0.37464912       0.12849836       0.37385797 </v>
    <v>       0.86928663       0.12965928       0.37045606 </v>
    <v>       0.37620308       0.62968908       0.37299509 </v>
    <v>       0.87346197       0.62628452       0.37806563 </v>
    <v>       0.38030427       0.12496834       0.87913329 </v>
    <v>       0.87673068       0.12219720       0.87228752 </v>
    <v>       0.37277051       0.62766924       0.87181623 </v>
    <v>       0.87021876       0.62251206       0.87631092 </v>
    <v>       0.00148372       0.25024709       0.24989472 </v>
    <v>       0.50603876       0.25068058       0.24876830 </v>
    <v>       0.99602644       0.75233280       0.24883889 </v>
    <v>       0.50002411       0.75359562       0.25480100 </v>
    <v>       0.00415390       0.24830764       0.74564161 </v>
    <v>       0.49743899       0.25468128       0.75149400 </v>
    <v>       0.99642874       0.75131025       0.74832473 </v>
    <v>       0.50019368       0.75207133       0.74850744 </v>
    <v>       0.37587762       0.37324499       0.12971519 </v>
    <v>       0.88340139       0.37431206       0.12797263 </v>
    <v>       0.36568136       0.87570390       0.12233955 </v>
    <v>       0.87716856       0.87188359       0.13006723 </v>
    <v>       0.38152077       0.38160893       0.62631587 </v>
    <v>       0.87623955       0.37618488       0.62102585 </v>
    <v>       0.37606003       0.87988352       0.62514725 </v>
    <v>       0.87721424       0.87649742       0.63027169 </v>
    <v>       0.25167894       0.99188276       0.25606575 </v>
    <v>       0.74839571       0.00203564       0.24969745 </v>
    <v>       0.24954188       0.50513255       0.24758229 </v>
    <v>       0.74981239       0.49493168       0.24617291 </v>
    <v>       0.25186192       0.00332449       0.74862706 </v>
    <v>       0.74777001       0.99786804       0.75239426 </v>
    <v>       0.25053804       0.50024052       0.75030442 </v>
    <v>       0.74733702       0.49963409       0.75416709 </v>
    <v>       0.12837638       0.11789059       0.12876079 </v>
    <v>       0.62706180       0.12712082       0.13110084 </v>
    <v>       0.12412392       0.62702223       0.12354683 </v>
[...]
       <r>    -3.0458     0.0000    46.0000 </r>
       <r>    -2.9891     0.0000    46.0000 </r>
       <r>    -2.9324     0.0000    46.0000 </r>
       <r>    -2.8757     0.0000    46.0000 </r>
       <r>    -2.8190     0.0000    46.0000 </r>
       <r>    -2.7623     0.0000    46.0000 </r>
       <r>    -2.7056     0.0000    46.0000 </r>
       <r>    -2.6489     0.0000    46.0000 </r>
       <r>    -2.5922     0.0000    46.0000 </r>
       <r>    -2.5355     0.0000    46.0000 </r>
       <r>    -2.4788     0.0000    46.0000 </r>
       <r>    -2.4221     0.0002    46.0000 </r>
       <r>    -2.3654     0.0073    46.0004 </r>
       <r>    -2.3087     0.1276    46.0077 </r>
       <r>    -2.2520     1.2315    46.0775 </r>
       <r>    -2.1953     6.7026    46.4575 </r>
       <r>    -2.1386    21.4173    47.6719 </r>
       <r>    -2.0819    43.2491    50.1240 </r>
       <r>    -2.0252    62.3938    53.6617 </r>
       <r>    -1.9685    74.6628    57.8950 </r>
       <r>    -1.9118    80.4048    62.4538 </r>
       <r>    -1.8551    77.4507    66.8452 </r>
       <r>    -1.7984    69.7676    70.8009 </r>
       <r>    -1.7417    64.6800    74.4682 </r>
       <r>    -1.6850    58.0123    77.7574 </r>
       <r>    -1.6283    42.1791    80.1489 </r>
       <r>    -1.5716    22.3069    81.4137 </r>
       <r>    -1.5149     8.1299    81.8747 </r>
       <r>    -1.4582     1.9398    81.9847 </r>
       <r>    -1.4015     0.5748    82.0172 </r>
       <r>    -1.3448     2.1720    82.1404 </r>
       <r>    -1.2881     8.6411    82.6303 </r>
       <r>    -1.2314    20.4579    83.7903 </r>
       <r>    -1.1747    30.9024    85.5424 </r>
       <r>    -1.1180    33.0563    87.4166 </r>
       <r>    -1.0613    26.0050    88.8911 </r>
       <r>    -1.0046    13.9506    89.6821 </r>
       <r>    -0.9479     4.6188    89.9440 </r>
       <r>    -0.8912     0.8868    89.9942 </r>
       <r>    -0.8345     0.0957    89.9997 </r>
       <r>    -0.7778     0.0057    90.0000 </r>
       <r>    -0.7211     0.0002    90.0000 </r>
       <r>    -0.6644     0.0000    90.0000 </r>
       <r>    -0.6077     0.0000    90.0000 </r>
       <r>    -0.5510     0.0000    90.0000 </r>
       <r>    -0.4943     0.0000    90.0000 </r>
       <r>    -0.4376     0.0000    90.0000 </r>
       <r>    -0.3809     0.0000    90.0000 </r>
       <r>    -0.3242     0.0000    90.0000 </r>
       <r>    -0.2675     0.0000    90.0000 </r>
       <r>    -0.2108     0.0000    90.0000 </r>
       <r>    -0.1541     0.0001    90.0000 </r>
       <r>    -0.0974     0.0025    90.0001 </r>
       <r>    -0.0407     0.0533    90.0032 </r>
       <r>     0.0160     0.6339    90.0391 </r>
       <r>     0.0727     4.2357    90.2793 </r>
       <r>     0.1294    16.3222    91.2047 </r>
       <r>     0.1861    37.8683    93.3518 </r>
       <r>     0.2428    56.8801    96.5768 </r>
       <r>     0.2995    62.0248   100.0936 </r>
       <r>     0.3562    57.5058   103.3541 </r>
       <r>     0.4129    52.8972   106.3533 </r>
       <r>     0.4696    49.4558   109.1574 </r>
       <r>     0.5263    41.1509   111.4906 </r>
       <r>     0.5830    26.7712   113.0085 </r>
       <r>     0.6396    12.6300   113.7246 </r>
       <r>     0.6963     3.9910   113.9509 </r>
       <r>     0.7530     0.7745   113.9948 </r>
       <r>     0.8097     0.0866   113.9997 </r>
       <r>     0.8664     0.0054   114.0000 </r>
       <r>     0.9231     0.0002   114.0000 </r>
       <r>     0.9798     0.0000   114.0000 </r>
       <r>     1.0365     0.0000   114.0000 </r>
       <r>     1.0932     0.0000   114.0000 </r>
       <r>     1.1499     0.0000   114.0000 </r>
       <r>     1.2066     0.0000   114.0000 </r>
       <r>     1.2633     0.0000   114.0000 </r>
       <r>     1.3200     0.0000   114.0000 </r>
       <r>     1.3767     0.0000   114.0000 </r>
       <r>     1.4334     0.0007   114.0000 </r>
       <r>     1.4901     0.0173   114.0010 </r>
       <r>     1.5468     0.2427   114.0148 </r>
       <r>     1.6035     1.9264   114.1240 </r>
       <r>     1.6602     9.0235   114.6356 </r>
       <r>     1.7169    26.6665   116.1476 </r>
       <r>     1.7736    54.4341   119.2339 </r>
       <r>     1.8303    84.1589   124.0056 </r>
       <r>     1.8870   106.3990   130.0383 </r>
       <r>     1.9437   117.8169   136.7184 </r>
       <r>     2.0004   120.6986   143.5619 </r>
       <r>     2.0571   115.7028   150.1221 </r>
       <r>     2.1138    98.7505   155.7211 </r>
       <r>     2.1705    69.6095   159.6679 </r>
       <r>     2.2272    43.6451   162.1425 </r>
       <r>     2.2839    37.4444   164.2656 </r>
       <r>     2.3406    42.8517   166.6952 </r>
       <r>     2.3973    42.4353   169.1013 </r>
       <r>     2.4540    36.2005   171.1538 </r>
       <r>     2.5107    27.7547   172.7274 </r>
       <r>     2.5674    15.7575   173.6209 </r>
       <r>     2.6241     5.4845   173.9318 </r>
       <r>     2.6808     1.0894   173.9936 </r>
       <r>     2.7375     0.2984   174.0105 </r>
       <r>     2.7942     1.7737   174.1111 </r>
       <r>     2.8509     9.7301   174.6628 </r>
       <r>     2.9076    30.7001   176.4034 </r>
       <r>     2.9643    56.0518   179.5815 </r>
       <r>     3.0210    59.6244   182.9621 </r>
       <r>     3.0777    37.0356   185.0620 </r>
       <r>     3.1344    13.3911   185.8213 </r>
       <r>     3.1911     2.7958   185.9798 </r>
       <r>     3.2478     0.3332   185.9987 </r>
       <r>     3.3045     0.0224   186.0000 </r>
       <r>     3.3612     0.0008   186.0000 </r>
       <r>     3.4179     0.0000   186.0000 </r>
       <r>     3.4746     0.0011   186.0001 </r>
       <r>     3.5313     0.0277   186.0016 </r>
       <r>     3.5880     0.3678   186.0225 </r>
       <r>     3.6447     2.7194   186.1767 </r>
       <r>     3.7014    11.5257   186.8302 </r>
       <r>     3.7581    29.4295   188.4988 </r>
       <r>     3.8148    48.7705   191.2640 </r>
       <r>     3.8715    58.3724   194.5737 </r>
       <r>     3.9282    59.7231   197.9599 </r>
       <r>     3.9849    61.7569   201.4614 </r>
       <r>     4.0416    60.8981   204.9143 </r>
       <r>     4.0983    48.2551   207.6503 </r>
       <r>     4.1550    27.8646   209.2302 </r>
       <r>     4.2117    11.6919   209.8931 </r>
       <r>     4.2684     8.0744   210.3509 </r>
       <r>     4.3251    19.2567   211.4427 </r>
       <r>     4.3818    41.1930   213.7783 </r>
       <r>     4.4385    61.7040   217.2769 </r>
       <r>     4.4952    72.2452   221.3731 </r>
       <r>     4.5519    77.4466   225.7642 </r>
       <r>     4.6086    83.5825   230.5032 </r>
       <r>     4.6653    89.1883   235.5601 </r>
       <r>     4.7220    88.6137   240.5844 </r>
       <r>     4.7787    76.8666   244.9426 </r>
       <r>     4.8354    52.9693   247.9459 </r>
       <r>     4.8921    26.0073   249.4205 </r>
       <r>     4.9488     8.3562   249.8943 </r>
       <r>     5.0055     1.6565   249.9882 </r>
       <r>     5.0622     0.1940   249.9992 </r>
       <r>     5.1189     0.0130   250.0000 </r>
       <r>     5.1756     0.0005   250.0000 </r>
       <r>     5.2323     0.0000   250.0000 </r>
       <r>     5.2890     0.0000   250.0000 </r>
       <r>     5.3456     0.0000   250.0000 </r>
       <r>     5.4023     0.0000   250.0000 </r>
       <r>     5.4590     0.0000   250.0000 </r>
       <r>     5.5157     0.0004   250.0000 </r>
       <r>     5.5724     0.0105   250.0006 </r>
       <r>     5.6291     0.1470   250.0090 </r>
       <r>     5.6858     1.1298   250.0730 </r>
       <r>     5.7425     4.9013   250.3509 </r>
       <r>     5.7992    12.5380   251.0618 </r>
       <r>     5.8559    20.3835   252.2175 </r>
       <r>     5.9126    23.4440   253.5468 </r>
       <r>     5.9693    20.8513   254.7290 </r>
       <r>     6.0260    14.0346   255.5248 </r>
       <r>     6.0827     6.4335   255.8895 </r>
       <r>     6.1394     2.5455   256.0339 </r>
       <r>     6.1961     4.8179   256.3070 </r>
       <r>     6.2528    14.6946   257.1402 </r>
       <r>     6.3095    29.6599   258.8219 </r>
       <r>     6.3662    43.5287   261.2899 </r>
       <r>     6.4229    49.9506   264.1220 </r>
       <r>     6.4796    40.6294   266.4257 </r>
       <r>     6.5363    20.7072   267.5997 </r>
       <r>     6.5930     7.0914   268.0018 </r>
       <r>     6.6497     5.8956   268.3361 </r>
       <r>     6.7064    14.1472   269.1382 </r>
       <r>     6.7631    26.8741   270.6620 </r>
       <r>     6.8198    39.4524   272.8989 </r>
       <r>     6.8765    47.3351   275.5827 </r>
       <r>     6.9332    42.1879   277.9747 </r>
       <r>     6.9899    24.7411   279.3775 </r>
       <r>     7.0466     9.0787   279.8922 </r>
       <r>     7.1033     3.7196   280.1031 </r>
       <r>     7.1600     9.5027   280.6419 </r>
       <r>     7.2167    26.1933   282.1271 </r>
       <r>     7.2734    41.5779   284.4845 </r>
       <r>     7.3301    37.1764   286.5923 </r>
       <r>     7.3868    18.6779   287.6513 </r>
       <r>     7.4435     5.2523   287.9491 </r>
       <r>     7.5002     0.8223   287.9958 </r>
       <r>     7.5569     0.0712   287.9998 </r>
       <r>     7.6136     0.0034   288.0000 </r>
       <r>     7.6703     0.0002   288.0000 </r>
       <r>     7.7270     0.0044   288.0003 </r>
       <r>     7.7837     0.0881   288.0053 </r>
       <r>     7.8404     0.9661   288.0600 </r>
       <r>     7.8971     5.9492   288.3973 </r>
       <r>     7.9538    21.1573   289.5969 </r>
       <r>     8.0105    45.5723   292.1808 </r>
       <r>     8.0672    64.3714   295.8306 </r>
       <r>     8.1239    67.6042   299.6637 </r>
       <r>     8.1806    62.5126   303.2081 </r>
       <r>     8.2373    58.5581   306.5283 </r>
       <r>     8.2940    55.7366   309.6885 </r>
       <r>     8.3507    50.4704   312.5501 </r>
       <r>     8.4074    42.3062   314.9488 </r>
       <r>     8.4641    30.5577   316.6814 </r>
       <r>     8.5208    16.3356   317.6076 </r>
       <r>     8.5775     5.7370   317.9329 </r>
       <r>     8.6342     2.0810   318.0508 </r>
       <r>     8.6909     4.5959   318.3114 </r>
       <r>     8.7476    12.2999   319.0088 </r>
       <r>     8.8043    19.7274   320.1273 </r>
       <r>     8.8610    18.6440   321.1844 </r>
       <r>     8.9177    10.3612   321.7719 </r>
       <r>     8.9744     3.3423   321.9614 </r>
       <r>     9.0311     0.6141   321.9962 </r>
       <r>     9.0878     0.0631   321.9998 </r>
       <r>     9.1445     0.0036   322.0000 </r>
       <r>     9.2012     0.0001   322.0000 </r>
       <r>     9.2579     0.0000   322.0000 </r>
       <r>     9.3146     0.0000   322.0000 </r>
       <r>     9.3713     0.0000   322.0000 </r>
       <r>     9.4280     0.0000   322.0000 </r>
       <r>     9.4847     0.0000   322.0000 </r>
       <r>     9.5414     0.0000   322.0000 </r>
       <r>     9.5981     0.0000   322.0000 </r>
       <r>     9.6548     0.0000   322.0000 </r>
       <r>     9.7115     0.0000   322.0000 </r>
       <r>     9.7682     0.0000   322.0000 </r>
       <r>     9.8249     0.0000   322.0000 </r>
      </set>
     </set>
    </array>
   </total>
  </dos>
 </calculation>
 <structure name="finalpos" >
  <crystal>
   <varray name="basis" >
    <v>      10.86180000       0.00000000       0.00000000 </v>
    <v>       0.00000000      10.86180000       0.00000000 </v>
    <v>       0.00000000       0.00000000      10.86180000 </v>
   </varray>
   <i name="volume">   1281.46103541 </i>
   <varray name="rec_basis" >
    <v>       0.09206577       0.00000000       0.00000000 </v>
    <v>       0.00000000       0.09206577       0.00000000 </v>
    <v>       0.00000000       0.00000000       0.09206577 </v>
   </varray>
  </crystal>
  <varray name="positions" >
   <v>       0.00300852       0.00176241       0.99383811 </v>
   <v>       0.50213923       0.99738212       0.01076440 </v>
   <v>       0.00688074       0.49985227       0.99586562 </v>
   <v>       0.50063449       0.50245590       0.98762731 </v>
   <v>       0.99885527       0.99750141       0.51363520 </v>
   <v>       0.51215950       0.00165165       0.50000052 </v>
   <v>       0.99437145       0.49354422       0.49991124 </v>
   <v>       0.50244784       0.50498364       0.50107970 </v>
   <v>       0.37849937       0.11842749       0.37851064 </v>
   <v>       0.88388233       0.11284142       0.37655731 </v>
   <v>       0.37267213       0.62023664       0.37825645 </v>
   <v>       0.88372981       0.63246461       0.37409737 </v>
   <v>       0.37707478       0.11630181       0.86731623 </v>
   <v>       0.88397321       0.12368301       0.87846988 </v>
   <v>       0.37128215       0.62715640       0.88070494 </v>
   <v>       0.87572705       0.61759228       0.87764326 </v>
   <v>       0.00095652       0.24830831       0.24893356 </v>
   <v>       0.48711318       0.25778572       0.25257596 </v>
   <v>       0.00400622       0.74817336       0.23817850 </v>
   <v>       0.49267467       0.74200288       0.25522695 </v>
   <v>       0.99861744       0.25930254       0.75648952 </v>
   <v>       0.48831105       0.25145093       0.74827066 </v>
   <v>       0.98678495       0.75265992       0.74181864 </v>
   <v>       0.50473408       0.74659443       0.75680684 </v>
   <v>       0.37426895       0.38425876       0.11463774 </v>
   <v>       0.87662655       0.37843714       0.13375198 </v>
   <v>       0.37546033       0.88047013       0.13393454 </v>
   <v>       0.87881937       0.86843225       0.12544655 </v>
   <v>       0.37868536       0.38123231       0.62110947 </v>
   <v>       0.87334836       0.36847625       0.62280691 </v>
   <v>       0.37927228       0.87501884       0.61847156 </v>
   <v>       0.86082481       0.87887241       0.61795028 </v>
   <v>       0.24369359       0.01022237       0.25183149 </v>
   <v>       0.75269702       0.00048710       0.25295818 </v>
   <v>       0.25145966       0.49543386       0.24997436 </v>
   <v>       0.74363307       0.49882155       0.25566981 </v>
   <v>       0.24626780       0.98337561       0.74670898 </v>
   <v>       0.74169128       0.01226829       0.75061996 </v>
   <v>       0.25165486       0.51006523       0.74905180 </v>
   <v>       0.76076396       0.49012736       0.75931042 </v>
   <v>       0.12057933       0.12871472       0.11884113 </v>
   <v>       0.62888134       0.12615708       0.13898269 </v>
   <v>       0.12044928       0.61404071       0.13632101 </v>
   <v>       0.62939262       0.62288657       0.11751435 </v>
   <v>       0.12952385       0.13167704       0.62871188 </v>
   <v>       0.62544178       0.14014751       0.62584129 </v>
   <v>       0.13116069       0.63067476       0.62286923 </v>
   <v>       0.63125701       0.61972294       0.63419773 </v>
   <v>       0.25715206       0.24585095       0.99557669 </v>
   <v>       0.75054307       0.24702047       0.01295656 </v>
   <v>       0.24358206       0.74995924       0.00541677 </v>
   <v>       0.75301032       0.74954728       0.98504281 </v>
   <v>       0.25717276       0.24335027       0.48968071 </v>
   <v>       0.75278507       0.26210812       0.48662753 </v>
   <v>       0.25326442       0.75361093       0.50664138 </v>
   <v>       0.73746065       0.74674596       0.48842185 </v>
   <v>       0.12942731       0.37074193       0.38165475 </v>
   <v>       0.61939588       0.38229644       0.36555065 </v>
   <v>       0.11115264       0.88157869       0.38257166 </v>
   <v>       0.61976917       0.86793636       0.36594319 </v>
   <v>       0.13150076       0.37917543       0.86710207 </v>
   <v>       0.63044301       0.36603355       0.88118588 </v>
   <v>       0.11994589       0.86809991       0.86372245 </v>
   <v>       0.61700584       0.88180830       0.88181291 </v>
  </varray>
  <varray name="velocities" >
   <v>      -0.00005857       0.00107567      -0.00058258 </v>
   <v>      -0.00074038      -0.00026895       0.00077396 </v>
   <v>       0.00098814      -0.00032122       0.00058745 </v>
   <v>      -0.00020502       0.00020926      -0.00028424 </v>
   <v>       0.00064752      -0.00007656       0.00204972 </v>
   <v>       0.00013188      -0.00006691      -0.00019410 </v>
   <v>      -0.00039049      -0.00053446       0.00003629 </v>
   <v>       0.00068912       0.00020517       0.00120683 </v>
   <v>      -0.00031076      -0.00013448       0.00104438 </v>
   <v>       0.00079142      -0.00078879       0.00057731 </v>
   <v>      -0.00111814       0.00003999      -0.00014474 </v>
   <v>      -0.00035224       0.00250425       0.00044748 </v>
   <v>       0.00055414      -0.00153103      -0.00067777 </v>
   <v>       0.00040868       0.00038338       0.00098786 </v>
   <v>      -0.00086147       0.00037697       0.00108196 </v>
   <v>      -0.00147676      -0.00065064       0.00006463 </v>
   <v>       0.00023071       0.00008514      -0.00125883 </v>
   <v>      -0.00031986       0.00134631       0.00104601 </v>
   <v>      -0.00048422      -0.00052906      -0.00003612 </v>
   <v>      -0.00058740       0.00074883       0.00029424 </v>
   <v>      -0.00030598       0.00079439      -0.00029934 </v>
   <v>      -0.00094698       0.00086247      -0.00193045 </v>
   <v>      -0.00275934       0.00092118      -0.00298072 </v>
   <v>       0.00005080       0.00214316       0.00091077 </v>
   <v>      -0.00107919       0.00153378      -0.00137815 </v>
   <v>       0.00149644       0.00068057       0.00151951 </v>
   <v>      -0.00048143       0.00040532       0.00094469 </v>
   <v>       0.00039969      -0.00185986      -0.00064727 </v>
   <v>       0.00171442       0.00138462      -0.00188563 </v>
   <v>       0.00035579      -0.00007571      -0.00089219 </v>
   <v>      -0.00046863       0.00061250      -0.00131951 </v>
   <v>      -0.00094175       0.00037104      -0.00120378 </v>
   <v>       0.00055769       0.00084902       0.00022790 </v>
   <v>      -0.00006917      -0.00057251       0.00029255 </v>
   <v>      -0.00056863      -0.00049682      -0.00059817 </v>
   <v>      -0.00056198       0.00007514       0.00046389 </v>
   <v>       0.00010267      -0.00154808      -0.00066796 </v>
   <v>      -0.00194059       0.00076930       0.00167233 </v>
   <v>      -0.00032834       0.00221549      -0.00008461 </v>
   <v>       0.00118802      -0.00130036       0.00013812 </v>
   <v>       0.00024278      -0.00037243      -0.00157335 </v>
   <v>       0.00122433      -0.00059143       0.00038246 </v>
   <v>       0.00140342      -0.00094013       0.00189679 </v>
   <v>       0.00044508       0.00016662      -0.00074127 </v>
   <v>       0.00114640      -0.00071845       0.00067880 </v>
   <v>       0.00030643       0.00085159       0.00060753 </v>
   <v>       0.00113586       0.00052544      -0.00157961 </v>
   <v>       0.00073042      -0.00046493       0.00024665 </v>
   <v>       0.00014298      -0.00089404       0.00087186 </v>
   <v>      -0.00015229      -0.00194843       0.00063959 </v>
   <v>      -0.00002826      -0.00114154       0.00076703 </v>
   <v>      -0.00084952      -0.00069105      -0.00301608 </v>
   <v>       0.00062349       0.00025953       0.00019297 </v>
   <v>       0.00061341       0.00191241      -0.00088500 </v>
   <v>       0.00051022      -0.00042183       0.00200263 </v>
   <v>       0.00026521      -0.00076998      -0.00153437 </v>
   <v>       0.00061491      -0.00030134       0.00041867 </v>
   <v>      -0.00074645       0.00123330       0.00072089 </v>
   <v>      -0.00160665       0.00038826       0.00057859 </v>
   <v>      -0.00078644      -0.00286916      -0.00057430 </v>
   <v>       0.00112952      -0.00062446      -0.00012633 </v>
   <v>       0.00130572      -0.00102109       0.00150549 </v>
   <v>      -0.00090502      -0.00117796      -0.00159212 </v>
   <v>       0.00028465      -0.00022642       0.00081079 </v>
  </varray>
 </structure>
</modeling>
