si_2x2x2                                
           1
    10.861800    0.000000    0.000000
     0.000000   10.861800    0.000000
     0.000000    0.000000   10.861800
   Si
  64
Direct configuration=     1
   0.00000000  0.00000000  0.00000000
   0.50000000  0.00000000  0.00000000
   0.00000000  0.50000000  0.00000000
   0.50000000  0.50000000  0.00000000
   0.00000000  0.00000000  0.50000000
   0.50000000  0.00000000  0.50000000
   0.00000000  0.50000000  0.50000000
   0.50000000  0.50000000  0.50000000
   0.37500000  0.12500000  0.37500000
   0.87500000  0.12500000  0.37500000
   0.37500000  0.62500000  0.37500000
   0.87500000  0.62500000  0.37500000
   0.37500000  0.12500000  0.87500000
   0.87500000  0.12500000  0.87500000
   0.37500000  0.62500000  0.87500000
   0.87500000  0.62500000  0.87500000
   0.00000000  0.25000000  0.25000000
   0.50000000  0.25000000  0.25000000
   0.00000000  0.75000000  0.25000000
   0.50000000  0.75000000  0.25000000
   0.00000000  0.25000000  0.75000000
   0.50000000  0.25000000  0.75000000
   0.00000000  0.75000000  0.75000000
   0.50000000  0.75000000  0.75000000
   0.37500000  0.37500000  0.12500000
   0.87500000  0.37500000  0.12500000
   0.37500000  0.87500000  0.12500000
   0.87500000  0.87500000  0.12500000
   0.37500000  0.37500000  0.62500000
   0.87500000  0.37500000  0.62500000
   0.37500000  0.87500000  0.62500000
   0.87500000  0.87500000  0.62500000
   0.25000000  0.00000000  0.25000000
   0.75000000  0.00000000  0.25000000
   0.25000000  0.50000000  0.25000000
   0.75000000  0.50000000  0.25000000
   0.25000000  0.00000000  0.75000000
   0.75000000  0.00000000  0.75000000
   0.25000000  0.50000000  0.75000000
   0.75000000  0.50000000  0.75000000
   0.12500000  0.12500000  0.12500000
   0.62500000  0.12500000  0.12500000
   0.12500000  0.62500000  0.12500000
   0.62500000  0.62500000  0.12500000
   0.12500000  0.12500000  0.62500000
   0.62500000  0.12500000  0.62500000
   0.12500000  0.62500000  0.62500000
   0.62500000  0.62500000  0.62500000
   0.25000000  0.25000000  0.00000000
   0.75000000  0.25000000  0.00000000
   0.25000000  0.75000000  0.00000000
   0.75000000  0.75000000  0.00000000
   0.25000000  0.25000000  0.50000000
   0.75000000  0.25000000  0.50000000
   0.25000000  0.75000000  0.50000000
   0.75000000  0.75000000  0.50000000
   0.12500000  0.37500000  0.37500000
   0.62500000  0.37500000  0.37500000
   0.12500000  0.87500000  0.37500000
   0.62500000  0.87500000  0.37500000
   0.12500000  0.37500000  0.87500000
   0.62500000  0.37500000  0.87500000
   0.12500000  0.87500000  0.87500000
   0.62500000  0.87500000  0.87500000
si_2x2x2                                
           1
    10.861800    0.000000    0.000000
     0.000000   10.861800    0.000000
     0.000000    0.000000   10.861800
   Si
  64
Direct configuration=     2
  -0.00012327  0.00029387  0.00018090
   0.49871926  0.00141480 -0.00132411
   0.00117466  0.50035915 -0.00161850
   0.49998213  0.49948402  0.00010305
   0.00153733 -0.00048630  0.49891261
   0.49934850 -0.00026187  0.49944361
   0.00004912  0.49971832  0.49849472
   0.49953263  0.50006197  0.50031375
   0.37486693  0.12618433  0.37459146
   0.87297281  0.12661803  0.37340454
   0.37543191  0.62663690  0.37426609
   0.87447545  0.62551404  0.37616061
   0.37690476  0.12490002  0.87649358
   0.87563245  0.12398620  0.87405739
   0.37413580  0.62598955  0.87393031
   0.87328654  0.62415202  0.87548936
   0.00042895  0.25014083  0.24993369
   0.50210669  0.25022814  0.24952194
  -0.00139091  0.75087889  0.24954778
   0.50002860  0.75119351  0.25175835
   0.00146789  0.24943126  0.74855231
   0.49899713  0.25158472  0.75047119
  -0.00121048  0.75052684  0.74936867
   0.50013176  0.75068163  0.74949260
   0.37530436  0.37436910  0.12664994
   0.87793061  0.37478452  0.12618485
   0.37172699  0.87528195  0.12414189
   0.87583447  0.87385557  0.12684647
   0.37730626  0.37728624  0.62545400
   0.87540408  0.37535937  0.62358039
   0.37538275  0.87668906  0.62507741
   0.87579614  0.87547953  0.62692847
   0.25058974 -0.00282468  0.25204621
   0.74945013  0.00077999  0.24986412
   0.24984745  0.50176627  0.24912519
   0.74984969  0.49826793  0.24864375
   0.25062695  0.00111825  0.74948184
   0.74922056 -0.00070680  0.75081838
   0.25016884  0.50009115  0.75010495
   0.74908219  0.49986793  0.75150690
   0.12614995  0.12257361  0.12626635
   0.62576228  0.12578718  0.12720745
   0.12472986  0.62567878  0.12456126
   0.62521733  0.62384848  0.12639376
   0.12486692  0.12450867  0.62390494
   0.62515836  0.12352905  0.62456198
   0.12521466  0.62473899  0.62655738
   0.62302195  0.62582537  0.62570524
   0.25008803  0.24953139  0.00062137
   0.74624294  0.24996543 -0.00175437
   0.25043209  0.74825125 -0.00232755
   0.75027917  0.74791754 -0.00022933
   0.24943140  0.24969308  0.50248149
   0.75086060  0.25077448  0.50017881
   0.24985527  0.74964952  0.50022532
   0.75043776  0.74962649  0.49833017
   0.12505252  0.37504292  0.37630830
   0.62566419  0.37424278  0.37427196
   0.12359225  0.87504048  0.37439350
   0.62386030  0.87483094  0.37548033
   0.12475083  0.37470706  0.87351544
   0.62675372  0.37686746  0.87735023
   0.12483079  0.87416838  0.87350084
   0.62573905  0.87250440  0.87449445
si_2x2x2                                
           1
    10.861800    0.000000    0.000000
     0.000000   10.861800    0.000000
     0.000000    0.000000   10.861800
   Si
  64
Direct configuration=     3
  -0.00023127  0.00054391  0.00037465
   0.49755505  0.00271859 -0.00253189
   0.00230792  0.50070229 -0.00319735
   0.49992058  0.49900542  0.00023195
   0.00295000 -0.00091914  0.49783667
   0.49869939 -0.00048735  0.49887981
   0.00011415  0.49949409  0.49705508
   0.49909877  0.50015788  0.50054428
   0.37474969  0.12735560  0.37420516
   0.87104097  0.12818054  0.37187616
   0.37584402  0.62821329  0.37358619
   0.87395791  0.62596318  0.37721656
   0.37870846  0.12486137  0.87790447
   0.87622604  0.12303241  0.87315021
   0.37336426  0.62690174  0.87287277
   0.87166886  0.62331645  0.87593944
   0.00090802  0.25023815  0.24989044
   0.50414809  0.25045590  0.24909408
  -0.00273253  0.75168391  0.24914124
   0.50004124  0.75239354  0.25339905
   0.00287671  0.24886370  0.74709743
   0.49810898  0.25315853  0.75095919
  -0.00240155  0.75098424  0.74879650
   0.50021167  0.75136252  0.74899690
   0.37560232  0.37377666  0.12823627
   0.88076120  0.37455561  0.12721648
   0.36858205  0.87553081  0.12325954
   0.87658697  0.87279359  0.12857234
   0.37951700  0.37951466  0.62589069
   0.87581695  0.37574881  0.62223112
   0.37574429  0.87833413  0.62512976
   0.87655203  0.87597212  0.62872399
   0.25115404 -0.00556231  0.25407817
   0.74891777  0.00147658  0.24975744
   0.24969145  0.50349303  0.24829979
   0.74976570  0.49656824  0.24734579
   0.25124585  0.00222393  0.74901324
   0.74847603 -0.00141185  0.75161495
   0.25034570  0.50017463  0.75020747
   0.74819010  0.49974294  0.75292669
   0.12727945  0.12018937  0.12752103
   0.62646076  0.12650751  0.12928111
   0.12444116  0.62635229  0.12408418
   0.62537810  0.62273198  0.12775192
   0.12473947  0.12398449  0.62283824
   0.62528255  0.12213103  0.62414131
   0.12538635  0.62446631  0.62804311
   0.62112884  0.62660958  0.62636009
   0.25016855  0.24906603  0.00124686
   0.74271118  0.24990956 -0.00339566
   0.25079508  0.74655896 -0.00460300
   0.75055084  0.74586988 -0.00037578
   0.24893064  0.24944736  0.50492697
   0.75165444  0.25149714  0.50036460
   0.24969944  0.74933951  0.50046403
   0.75084847  0.74929669  0.49679147
   0.12514100  0.37509059  0.37756431
   0.62630496  0.37353007  0.37360735
   0.12222573  0.87501958  0.37383591
   0.62277586  0.87472109  0.37596225
   0.12454367  0.37439894  0.87207688
   0.62837080  0.37869932  0.87959737
   0.12466374  0.87339058  0.87203344
   0.62643407  0.87007980  0.87405931
si_2x2x2                                
           1
    10.861800    0.000000    0.000000
     0.000000   10.861800    0.000000
     0.000000    0.000000   10.861800
   Si
  64
Direct configuration=     4
  -0.00030368  0.00069362  0.00058538
   0.49661278  0.00380029 -0.00351171
   0.00337021  0.50101592 -0.00469983
   0.49977479  0.49862049  0.00041179
   0.00412489 -0.00125277  0.49678328
   0.49807009 -0.00063191  0.49831186
   0.00020409  0.49937405  0.49575315
   0.49875289  0.50033039  0.50060642
   0.37464912  0.12849836  0.37385797
   0.86928663  0.12965928  0.37045606
   0.37620308  0.62968908  0.37299509
   0.87346197  0.62628452  0.37806563
   0.38030427  0.12496834  0.87913329
   0.87673068  0.12219720  0.87228752
   0.37277051  0.62766924  0.87181623
   0.87021876  0.62251206  0.87631092
   0.00148372  0.25024709  0.24989472
   0.50603876  0.25068058  0.24876830
  -0.00397356  0.75233280  0.24883889
   0.50002411  0.75359562  0.25480100
   0.00415390  0.24830764  0.74564161
   0.49743899  0.25468128  0.75149400
  -0.00357126  0.75131025  0.74832473
   0.50019368  0.75207133  0.74850744
   0.37587762  0.37324499  0.12971519
   0.88340139  0.37431206  0.12797263
   0.36568136  0.87570390  0.12233955
   0.87716856  0.87188359  0.13006723
   0.38152077  0.38160893  0.62631587
   0.87623955  0.37618488  0.62102585
   0.37606003  0.87988352  0.62514725
   0.87721424  0.87649742  0.63027169
   0.25167894 -0.00811724  0.25606575
   0.74839571  0.00203564  0.24969745
   0.24954188  0.50513255  0.24758229
   0.74981239  0.49493168  0.24617291
   0.25186192  0.00332449  0.74862706
   0.74777001 -0.00213196  0.75239426
   0.25053804  0.50024052  0.75030442
   0.74733702  0.49963409  0.75416709
   0.12837638  0.11789059  0.12876079
   0.62706180  0.12712082  0.13110084
   0.12412392  0.62702223  0.12354683
   0.62543674  0.62168939  0.12905786
   0.12463006  0.12340139  0.62183474
   0.62535322  0.12087154  0.62376460
   0.12547929  0.62417899  0.62940148
   0.61940973  0.62730933  0.62692425
   0.25023806  0.24859286  0.00189438
   0.73961308  0.24978292 -0.00482328
   0.25102833  0.74500513 -0.00675740
   0.75079181  0.74389675 -0.00034571
   0.24857040  0.24932064  0.50727813
   0.75235798  0.25214961  0.50057362
   0.24952146  0.74910328  0.50072898
   0.75119057  0.74906044  0.49548567
   0.12530711  0.37512716  0.37870677
   0.62692330  0.37289531  0.37306113
   0.12095024  0.87485874  0.37335923
   0.62180854  0.87470188  0.37643710
   0.12442414  0.37405382  0.87072257
   0.62971304  0.38046565  0.88163095
   0.12450649  0.87269658  0.87061716
   0.62706548  0.86778116  0.87373910
si_2x2x2                                
           1
    10.861800    0.000000    0.000000
     0.000000   10.861800    0.000000
     0.000000    0.000000   10.861800
   Si
  64
Direct configuration=     5
  -0.00032577  0.00069499  0.00081590
   0.49599275  0.00455563 -0.00416065
   0.00432944  0.50128316 -0.00609578
   0.49951047  0.49837626  0.00066310
   0.00495494 -0.00145335  0.49576759
   0.49747201 -0.00065383  0.49774175
   0.00032457  0.49940371  0.49464807
   0.49854306  0.50061295  0.50042438
   0.37456499  0.12959890  0.37356220
   0.86777804  0.13103558  0.36916369
   0.37648209  0.63102527  0.37252365
   0.87299866  0.62642846  0.37862623
   0.38158906  0.12530483  0.88008584
   0.87711111  0.12152752  0.87148984
   0.37243008  0.62824052  0.87074304
   0.86901765  0.62175347  0.87655988
   0.00220327  0.25013208  0.24996505
   0.50769226  0.25090383  0.24858905
  -0.00505678  0.75275098  0.24869496
   0.49996577  0.75478647  0.25586082
   0.00523445  0.24776752  0.74419318
   0.49706979  0.25613450  0.75209335
  -0.00469815  0.75144250  0.74800237
   0.50003375  0.75282557  0.74801875
   0.37611699  0.37279166  0.13104411
   0.88578665  0.37405591  0.12837177
   0.36311040  0.87577740  0.12136126
   0.87748398  0.87119688  0.13122509
   0.38322053  0.38349834  0.62674294
   0.87667174  0.37667286  0.62002482
   0.37630636  0.88129876  0.62512153
   0.87773606  0.87706677  0.63148393
   0.25215370 -0.01041502  0.25798634
   0.74789497  0.00240337  0.24971171
   0.24940022  0.50664326  0.24701434
   0.75004403  0.49339192  0.24517593
   0.25245976  0.00441359  0.74835745
   0.74713067 -0.00286626  0.75314035
   0.25075191  0.50027820  0.75039097
   0.74655043  0.49955839  0.75515139
   0.12942999  0.11570936  0.12998583
   0.62752421  0.12757477  0.13254696
   0.12377295  0.62770521  0.12292527
   0.62536063  0.62075293  0.13028913
   0.12455601  0.12273295  0.62091748
   0.62536099  0.11980836  0.62344844
   0.12547112  0.62388517  0.63057761
   0.61793581  0.62789488  0.62736400
   0.25029504  0.24809179  0.00259217
   0.73711901  0.24951697 -0.00593716
   0.25106018  0.74365968 -0.00872776
   0.75098544  0.74204620 -0.00007166
   0.24840899  0.24936952  0.50946982
   0.75292475  0.25269952  0.50081508
   0.24931193  0.74896526  0.50103143
   0.75142914  0.74895650  0.49451185
   0.12558678  0.37514338  0.37969331
   0.62751881  0.37235986  0.37267646
   0.11980106  0.87449878  0.37299177
   0.62101141  0.87480290  0.37690644
   0.12443734  0.37365006  0.86948146
   0.63067865  0.38214516  0.88337677
   0.12437123  0.87211455  0.86927184
   0.62761263  0.86567271  0.87358327
si_2x2x2                                
           1
    10.861800    0.000000    0.000000
     0.000000   10.861800    0.000000
     0.000000    0.000000   10.861800
   Si
  64
Direct configuration=     6
  -0.00028734  0.00051601  0.00106606
   0.49575076  0.00490174 -0.00440939
   0.00516878  0.50149031 -0.00736461
   0.49909670  0.49831408  0.00100410
   0.00536945 -0.00149201  0.49480538
   0.49691050 -0.00051488  0.49715830
   0.00048240  0.49960830  0.49378827
   0.49850145  0.50102995  0.49993799
   0.37448753  0.13066017  0.37332620
   0.86658618  0.13227204  0.36804222
   0.37665258  0.63219462  0.37219387
   0.87256988  0.62636861  0.37883072
   0.38249072  0.12593376  0.88069141
   0.87734528  0.12105639  0.87077183
   0.37239786  0.62857399  0.86965383
   0.86810302  0.62105011  0.87666451
   0.00313595  0.24986371  0.25011580
   0.50903624  0.25112871  0.24858822
  -0.00593593  0.75286869  0.24874426
   0.49985290  0.75595725  0.25649219
   0.00606557  0.24725097  0.74275655
   0.49705418  0.25749391  0.75276112
  -0.00576652  0.75133337  0.74786127
   0.49970240  0.75362501  0.74753115
   0.37629926  0.37243692  0.13219200
   0.88787639  0.37380276  0.12835584
   0.36093925  0.87572749  0.12031222
   0.87747386  0.87079437  0.13196890
   0.38454831  0.38513308  0.62718237
   0.87710859  0.37722324  0.61926380
   0.37646258  0.88254668  0.62504716
   0.87808521  0.87769079  0.63227143
   0.25258879 -0.01239606  0.25981144
   0.74742691  0.00252907  0.24981578
   0.24927419  0.50799091  0.24662417
   0.75049603  0.49196670  0.24438871
   0.25303221  0.00548298  0.74824106
   0.74655907 -0.00360952  0.75384137
   0.25098855  0.50028114  0.75046166
   0.74584417  0.49952327  0.75580125
   0.13043244  0.11366454  0.13120406
   0.62783136  0.12784307  0.13353433
   0.12338399  0.62839529  0.12221210
   0.62512385  0.61994023  0.13144059
   0.12453509  0.12196119  0.62010753
   0.62529906  0.11898104  0.62320473
   0.12533592  0.62359047  0.63154065
   0.61675489  0.62834424  0.62764580
   0.25032753  0.24755809  0.00334451
   0.73534963  0.24905500 -0.00668106
   0.25084661  0.74258510 -0.01046536
   0.75111442  0.74035753  0.00049776
   0.24850417  0.24964434  0.51146773
   0.75331277  0.25311968  0.50108824
   0.24905018  0.74892398  0.50140358
   0.75152825  0.74902196  0.49395163
   0.12601446  0.37513448  0.38048723
   0.62809288  0.37196383  0.37249333
   0.11880223  0.87389037  0.37275907
   0.62042655  0.87505133  0.37737576
   0.12461294  0.37316846  0.86837609
   0.63120945  0.38373232  0.88477495
   0.12426714  0.87166694  0.86801439
   0.62807029  0.86379789  0.87363196
si_2x2x2                                
           1
    10.861800    0.000000    0.000000
     0.000000   10.861800    0.000000
     0.000000    0.000000   10.861800
   Si
  64
Direct configuration=     7
  -0.00017820  0.00013903  0.00133056
   0.49591782  0.00478900 -0.00422286
   0.00588207  0.50161879 -0.00849312
   0.49851221  0.49846510  0.00144710
   0.00530629 -0.00135923  0.49389198
   0.49639230 -0.00017865  0.49656507
   0.00067902  0.50000471  0.49318709
   0.49864978  0.50159923  0.49910958
   0.37440676  0.13166498  0.37316391
   0.86574011  0.13334324  0.36712049
   0.37669328  0.63318027  0.37201882
   0.87217711  0.62608465  0.37864439
   0.38297240  0.12688462  0.88091925
   0.87742458  0.12080355  0.87014158
   0.37269917  0.62864997  0.86855043
   0.86751026  0.62041610  0.87660733
   0.00429441  0.24942526  0.25034819
   0.51003096  0.25135207  0.24878750
  -0.00658791  0.75264510  0.24899275
   0.49967296  0.75708439  0.25664420
   0.00660462  0.24676611  0.74134888
   0.49743200  0.25874413  0.75350910
  -0.00675179  0.75096123  0.74791948
   0.49918186  0.75447744  0.74704508
   0.37641130  0.37219733  0.13313283
   0.88964172  0.37355295  0.12789399
   0.35920916  0.87553770  0.11918645
   0.87709844  0.87070775  0.13224665
   0.38547093  0.38648085  0.62763980
   0.87754429  0.37784084  0.61877159
   0.37650971  0.88361515  0.62491518
   0.87825477  0.87838627  0.63259977
   0.25299446 -0.01402003  0.26152189
   0.74700751  0.00238780  0.25001931
   0.24916614  0.50913883  0.24642738
   0.75118621  0.49067586  0.24383461
   0.25356397  0.00652022  0.74829095
   0.74606717 -0.00435128  0.75448231
   0.25124527  0.50024434  0.75050974
   0.74522707  0.49953878  0.75607351
   0.13137856  0.11177852  0.13241335
   0.62797333  0.12790310  0.13399870
   0.12295747  0.62908294  0.12140988
   0.62471421  0.61926692  0.13251037
   0.12457704  0.12107558  0.61941574
   0.62516557  0.11841840  0.62305329
   0.12505993  0.62330337  0.63225721
   0.61590806  0.62864759  0.62775037
   0.25033582  0.24699830  0.00416128
   0.73436935  0.24836684 -0.00702684
   0.25035597  0.74182779 -0.01193882
   0.75116222  0.73886232  0.00139299
   0.24889697  0.25016949  0.51322432
   0.75350438  0.25339583  0.50140392
   0.24872303  0.74898229  0.50185988
   0.75146463  0.74927122  0.49385358
   0.12660699  0.37510147  0.38106541
   0.62865827  0.37171853  0.37254896
   0.11796907  0.87299929  0.37268330
   0.62008999  0.87545698  0.37783725
   0.12496625  0.37259218  0.86742301
   0.63127512  0.38520897  0.88580275
   0.12419724  0.87137527  0.86685913
   0.62843034  0.86218235  0.87391814
si_2x2x2                                
           1
    10.861800    0.000000    0.000000
     0.000000   10.861800    0.000000
     0.000000    0.000000   10.861800
   Si
  64
Direct configuration=     8
   0.00000683 -0.00043814  0.00159708
   0.49647896  0.00421388 -0.00361438
   0.00646176  0.50166473 -0.00948411
   0.49774527  0.49884892  0.00199996
   0.00474358 -0.00103794  0.49302017
   0.49592306  0.00036509  0.49597218
   0.00090974  0.50059335  0.49285511
   0.49899738  0.50232069  0.49792940
   0.37431736  0.13260681  0.37308730
   0.86523631  0.13424778  0.36639618
   0.37659750  0.63397958  0.37200833
   0.87180570  0.62557114  0.37806165
   0.38304037  0.12814927  0.88078216
   0.87735010  0.12077522  0.86960289
   0.37335038  0.62846288  0.86745773
   0.86724314  0.61985239  0.87640140
   0.00568411  0.24881736  0.25066154
   0.51065366  0.25156937  0.24919839
  -0.00701039  0.75207213  0.24941840
   0.49942138  0.75816955  0.25628057
   0.00682826  0.24632100  0.73998582
   0.49822084  0.25988060  0.75432497
  -0.00764361  0.75033297  0.74817028
   0.49846521  0.75537607  0.74655747
   0.37644206  0.37209119  0.13385568
   0.89108321  0.37329871  0.12698116
   0.35795809  0.87521599  0.11798992
   0.87634861  0.87093905  0.13205204
   0.38598450  0.38752712  0.62811499
   0.87797235  0.37852001  0.61855947
   0.37642664  0.88449531  0.62471835
   0.87823974  0.87914380  0.63244260
   0.25338834 -0.01528098  0.26310801
   0.74664878  0.00197685  0.25032328
   0.24907458  0.51007802  0.24641682
   0.75211781  0.48952914  0.24351624
   0.25404420  0.00751281  0.74851481
   0.74564891 -0.00509500  0.75505834
   0.25152084  0.50016454  0.75053214
   0.74471324  0.49960939  0.75593057
   0.13225760  0.11006471  0.13360395
   0.62795042  0.12774002  0.13392496
   0.12248937  0.62975514  0.12052718
   0.62413024  0.61873742  0.13349746
   0.12469050  0.12008884  0.61884303
   0.62496194  0.11813376  0.62301791
   0.12464043  0.62302297  0.63271971
   0.61541674  0.62880861  0.62767537
   0.25031395  0.24641649  0.00504762
   0.73421401  0.24746052 -0.00698534
   0.24957750  0.74139989 -0.01314566
   0.75112310  0.73757140  0.00262522
   0.24959485  0.25094359  0.51469157
   0.75349693  0.25351612  0.50176864
   0.24832160  0.74914013  0.50241290
   0.75123662  0.74970034  0.49423708
   0.12737004  0.37504961  0.38142495
   0.62922452  0.37164258  0.37285468
   0.11730808  0.87181543  0.37279038
   0.62001942  0.87601046  0.37828459
   0.12550392  0.37190342  0.86664976
   0.63086877  0.38653969  0.88646256
   0.12416320  0.87125474  0.86582565
   0.62868742  0.86084346  0.87446093
si_2x2x2                                
           1
    10.861800    0.000000    0.000000
     0.000000   10.861800    0.000000
     0.000000    0.000000   10.861800
   Si
  64
Direct configuration=     9
   0.00026341 -0.00119533  0.00184362
   0.49738916  0.00322132 -0.00263652
   0.00691707  0.50161705 -0.01035370
   0.49679236  0.49946456  0.00266598
   0.00367574 -0.00053250  0.49218001
   0.49550506  0.00114560  0.49537724
   0.00118557  0.50136224  0.49279229
   0.49952598  0.50318678  0.49641757
   0.37421158  0.13347997  0.37310319
   0.86507998  0.13498216  0.36587891
   0.37636621  0.63461325  0.37215075
   0.87142981  0.62484319  0.37710201
   0.38274537  0.12967107  0.88032704
   0.87713228  0.12096184  0.86916596
   0.37432565  0.62802484  0.86640873
   0.86729809  0.61937709  0.87606300
   0.00728950  0.24806252  0.25103362
   0.51090152  0.25177343  0.24980535
  -0.00722511  0.75116410  0.24996926
   0.49909100  0.75920358  0.25539626
   0.00673711  0.24592005  0.73869032
   0.49941607  0.26090165  0.75518942
  -0.00843766  0.74946417  0.74859315
   0.49758479  0.75630904  0.74606669
   0.37638088  0.37212661  0.13436404
   0.89220576  0.37301277  0.12562257
   0.35721219  0.87478042  0.11674642
   0.87524864  0.87145667  0.13140887
   0.38612450  0.38826843  0.62859143
   0.87837064  0.37924989  0.61862725
   0.37619522  0.88519212  0.62444521
   0.87804542  0.87994142  0.63180482
   0.25379008 -0.01618309  0.26455399
   0.74634512  0.00130776  0.25072401
   0.24900322  0.51080682  0.24659315
   0.75327683  0.48852860  0.24342449
   0.25447094  0.00844270  0.74891471
   0.74529980 -0.00582200  0.75556456
   0.25182029  0.50004585  0.75052814
   0.74430552  0.49974065  0.75534749
   0.13306056  0.10853653  0.13476771
   0.62775731  0.12732753  0.13333101
   0.12198398  0.63039606  0.11957768
   0.62336839  0.61833946  0.13442566
   0.12488478  0.11902096  0.61837510
   0.62469007  0.11813208  0.62311786
   0.12408066  0.62275589  0.63293016
   0.61528113  0.62884631  0.62741868
   0.25025039  0.24581771  0.00600681
   0.73487755  0.24638442 -0.00659235
   0.24852933  0.74130051 -0.01410624
   0.75098720  0.73647947  0.00418216
   0.25058253  0.25194464  0.51586185
   0.75329941  0.25348093  0.50220302
   0.24784596  0.74939696  0.50307398
   0.75085621  0.75029244  0.49508208
   0.12830773  0.37499040  0.38157018
   0.62978771  0.37174410  0.37340849
   0.11681969  0.87035257  0.37310866
   0.62021080  0.87669902  0.37871131
   0.12622241  0.37108766  0.86607355
   0.63002788  0.38766829  0.88678622
   0.12415816  0.87130944  0.86491848
   0.62883455  0.85977933  0.87527663
si_2x2x2                                
           1
    10.861800    0.000000    0.000000
     0.000000   10.861800    0.000000
     0.000000    0.000000   10.861800
   Si
  64
Direct configuration=    10
   0.00058699 -0.00210280  0.00204077
   0.49857114  0.00186516 -0.00137399
   0.00725935  0.50146375 -0.01111866
   0.49566352  0.50031252  0.00343505
   0.00212654  0.00014651  0.49135733
   0.49514816  0.00216271  0.49479565
   0.00150817  0.50228433  0.49298644
   0.50020768  0.50416357  0.49462253
   0.37408477  0.13427766  0.37322140
   0.86526808  0.13554003  0.36555616
   0.37599845  0.63510841  0.37242656
   0.87101552  0.62392824  0.37581815
   0.38216890  0.13138758  0.87962152
   0.87678875  0.12134151  0.86883702
   0.37556549  0.62737777  0.86545002
   0.86765687  0.61899791  0.87561589
   0.00907731  0.24719463  0.25143639
   0.51078362  0.25195915  0.25057299
  -0.00727666  0.74996297  0.25057420
   0.49868289  0.76017881  0.25402427
   0.00633788  0.24556318  0.73747811
   0.50099204  0.26180779  0.75606850
  -0.00913378  0.74840953  0.74915674
   0.49658655  0.75726323  0.74556634
   0.37621082  0.37231296  0.13466164
   0.89301660  0.37265631  0.12386262
   0.35697070  0.87425155  0.11549991
   0.87386366  0.87219847  0.13037535
   0.38595449  0.38872504  0.62904476
   0.87872206  0.38001763  0.61895379
   0.37579728  0.88571850  0.62408761
   0.87768516  0.88075129  0.63070221
   0.25421260 -0.01674608  0.26583376
   0.74609309  0.00042313  0.25121320
   0.24894891  0.51132147  0.24694770
   0.75464609  0.48767922  0.24353624
   0.25483395  0.00929525  0.74947828
   0.74502590 -0.00651662  0.75598996
   0.25214433  0.49989091  0.75050234
   0.74400848  0.49993014  0.75434021
   0.13377644  0.10718827  0.13589825
   0.62738725  0.12665313  0.13226293
   0.12144748  0.63097728  0.11858785
   0.62244474  0.61805684  0.13531829
   0.12516698  0.11790096  0.61799435
   0.62435755  0.11841069  0.62337249
   0.12339636  0.62250603  0.63289637
   0.61548297  0.62878801  0.62698690
   0.25014594  0.24520722  0.00704154
   0.73633809  0.24520730 -0.00590165
   0.24725561  0.74150663 -0.01486644
   0.75075986  0.73557003  0.00602024
   0.25182292  0.25315452  0.51674696
   0.75292396  0.25328796  0.50272178
   0.24730333  0.74974782  0.50385747
   0.75034949  0.75102506  0.49634800
   0.12941496  0.37493639  0.38151487
   0.63034415  0.37201941  0.37419308
   0.11649766  0.86864532  0.37365768
   0.62063417  0.87749338  0.37910528
   0.12710120  0.37013261  0.86570517
   0.62881289  0.38854521  0.88683699
   0.12416933  0.87154486  0.86413853
   0.62886436  0.85899175  0.87636415
si_2x2x2                                
           1
    10.861800    0.000000    0.000000
     0.000000   10.861800    0.000000
     0.000000    0.000000   10.861800
   Si
  64
Direct configuration=    11
   0.00096715 -0.00313612  0.00216259
   0.49993478  0.00023004  0.00006836
   0.00749650  0.50118627 -0.01180353
   0.49437959  0.50138177  0.00428753
   0.00014655  0.00097220  0.49054589
   0.49485724  0.00342124  0.49424832
   0.00187624  0.50331887  0.49340087
   0.50100865  0.50521961  0.49260680
   0.37392865  0.13500709  0.37345559
   0.86578547  0.13591301  0.36542368
   0.37550537  0.63550297  0.37280557
   0.87053815  0.62287518  0.37428838
   0.38140156  0.13323324  0.87874693
   0.87634448  0.12188266  0.86862921
   0.37699622  0.62656992  0.86462950
   0.86827138  0.61872275  0.87508828
   0.01101395  0.24625650  0.25183100
   0.51033458  0.25212169  0.25145223
  -0.00721766  0.74853457  0.25113463
   0.49820394  0.76108740  0.25222852
   0.00564797  0.24524778  0.73637512
   0.50290922  0.26260440  0.75691931
  -0.00974436  0.74724676  0.74981392
   0.49553139  0.75820930  0.74505491
   0.37592444  0.37264769  0.13476018
   0.89353381  0.37217841  0.12175349
   0.35721768  0.87365438  0.11429821
   0.87227276  0.87309692  0.12903073
   0.38555847  0.38891709  0.62943559
   0.87901397  0.38081274  0.61951335
   0.37522650  0.88609797  0.62364724
   0.87717634  0.88153340  0.62917756
   0.25467315 -0.01701606  0.26693561
   0.74588490 -0.00061143  0.25176823
   0.24890447  0.51162885  0.24746677
   0.75618946  0.48697759  0.24382306
   0.25512564  0.01004863  0.75018720
   0.74482130 -0.00716946  0.75632952
   0.25247142  0.49970706  0.75045231
   0.74381237  0.50017296  0.75295184
   0.13440171  0.10601301  0.13696696
   0.62683938  0.12571941  0.13080625
   0.12088729  0.63147591  0.11758421
   0.62138588  0.61787613  0.13619376
   0.12553415  0.11677706  0.61767785
   0.62396927  0.11896659  0.62380819
   0.12261075  0.62228221  0.63264716
   0.61599174  0.62866471  0.62639308
   0.24999657  0.24459839  0.00815144
   0.73854846  0.24403295 -0.00497583
   0.24580500  0.74197267 -0.01546861
   0.75045416  0.73481837  0.00807557
   0.25327831  0.25452468  0.51734410
   0.75240273  0.25294466  0.50333817
   0.24670510  0.75016543  0.50477906
   0.74975164  0.75185104  0.49797487
   0.13068411  0.37491610  0.38128627
   0.63090038  0.37246518  0.37516946
   0.11632250  0.86673140  0.37445493
   0.62124687  0.87835061  0.37944991
   0.12811193  0.36903045  0.86554890
   0.62731219  0.38911902  0.88666932
   0.12417545  0.87195871  0.86348810
   0.62876077  0.85845950  0.87771234
si_2x2x2                                
           1
    10.861800    0.000000    0.000000
     0.000000   10.861800    0.000000
     0.000000    0.000000   10.861800
   Si
  64
Direct configuration=    12
   0.00139253 -0.00425351  0.00217931
   0.50138087 -0.00157797  0.00157518
   0.00764245  0.50077782 -0.01243656
   0.49297374  0.50263769  0.00520293
  -0.00218638  0.00191134  0.48973292
   0.49463679  0.00489602  0.49376139
   0.00228383  0.50441196  0.49399139
   0.50188792  0.50631564  0.49045995
   0.37373423  0.13566824  0.37381141
   0.86659981  0.13610014  0.36547532
   0.37490630  0.63585473  0.37325500
   0.86998060  0.62173415  0.37260818
   0.38052910  0.13513700  0.87780301
   0.87582953  0.12255316  0.86853803
   0.37854563  0.62564875  0.86397959
   0.86906450  0.61855358  0.87453173
   0.01305917  0.24529121  0.25218326
   0.50959921  0.25226068  0.25238855
  -0.00709455  0.74694684  0.25157047
   0.49764867  0.76191991  0.25008925