       N       E                     dE             d eps       ncg     rms          rms(c)
RMM:   1    -0.384262896303E+03   -0.38426E+03   -0.43430E+02   322   0.306E+01    0.444E+01
RMM:   2    -0.364050169250E+03    0.20213E+02   -0.21047E+01   322   0.711E+00    0.270E+01
RMM:   3    -0.360653637470E+03    0.33965E+01   -0.42986E+01   322   0.706E+00    0.422E+00
RMM:   4    -0.359737766882E+03    0.91587E+00   -0.19135E+00   322   0.219E+00    0.243E+00
RMM:   5    -0.359731817682E+03    0.59492E-02   -0.35582E-01   323   0.672E-01    0.584E-01
RMM:   6    -0.359719649317E+03    0.12168E-01   -0.97222E-02   323   0.357E-01    0.264E-01
RMM:   7    -0.359716581378E+03    0.30679E-02   -0.19850E-02   322   0.165E-01    0.702E-02
RMM:   8    -0.359716283198E+03    0.29818E-03   -0.10487E-03   325   0.456E-02    0.432E-02
RMM:   9    -0.359716290072E+03   -0.68745E-05   -0.11571E-04   325   0.155E-02    0.963E-03
RMM:  10    -0.359716285804E+03    0.42678E-05   -0.16920E-05   305   0.493E-03    0.474E-03
RMM:  11    -0.359716285587E+03    0.21761E-06   -0.75396E-06   304   0.366E-03
    1 T=   600. E= -.35483023E+03 F= -.35971629E+03 E0= -.35971620E+03  EK= 0.48861E+01 SP= 0.00E+00 SK= 0.00E+00
       N       E                     dE             d eps       ncg     rms          rms(c)
RMM:   1    -0.359496546960E+03    0.21974E+00   -0.76644E+00   322   0.449E+00    0.810E-01
RMM:   2    -0.359508865853E+03   -0.12319E-01   -0.21501E-01   322   0.760E-01    0.605E-01
RMM:   3    -0.359503617851E+03    0.52480E-02   -0.15080E-02   328   0.210E-01    0.357E-01
RMM:   4    -0.359502719955E+03    0.89790E-03   -0.91020E-03   322   0.119E-01    0.718E-02
RMM:   5    -0.359502572303E+03    0.14765E-03   -0.34797E-04   325   0.324E-02    0.206E-02
RMM:   6    -0.359502557985E+03    0.14318E-04   -0.13008E-04   324   0.129E-02    0.633E-03
RMM:   7    -0.359502557451E+03    0.53388E-06   -0.90701E-06   281   0.419E-03
    2 T=   575. E= -.35482051E+03 F= -.35950256E+03 E0= -.35950237E+03  EK= 0.46820E+01 SP= 0.14E-04 SK= 0.54E-08
       N       E                     dE             d eps       ncg     rms          rms(c)
RMM:   1    -0.358931783095E+03    0.57077E+00   -0.65657E-02   322   0.507E-01    0.122E-01
RMM:   2    -0.358931900953E+03   -0.11786E-03   -0.18181E-03   326   0.684E-02    0.619E-02
RMM:   3    -0.358931903261E+03   -0.23078E-05   -0.16818E-04   353   0.213E-02    0.322E-02
RMM:   4    -0.358931904785E+03   -0.15242E-05   -0.16672E-05   326   0.618E-03    0.110E-02
RMM:   5    -0.358931906929E+03   -0.21442E-05   -0.18356E-06   193   0.250E-03    0.163E-03
RMM:   6    -0.358931907231E+03   -0.30184E-06   -0.58849E-07   193   0.132E-03
    3 T=   506. E= -.35481516E+03 F= -.35893191E+03 E0= -.35893109E+03  EK= 0.41194E+01 SP= -.29E-02 SK= 0.24E-03
       N       E                     dE             d eps       ncg     rms          rms(c)
RMM:   1    -0.358121936850E+03    0.80997E+00   -0.56180E-02   322   0.511E-01    0.160E-01
RMM:   2    -0.358121996747E+03   -0.59897E-04   -0.12858E-03   334   0.592E-02    0.932E-02
RMM:   3    -0.358121977845E+03    0.18903E-04   -0.19172E-04   333   0.212E-02    0.296E-02
RMM:   4    -0.358121976080E+03    0.17649E-05   -0.14090E-05   337   0.555E-03    0.111E-02
RMM:   5    -0.358121974616E+03    0.14635E-05   -0.27651E-06   207   0.252E-03    0.211E-03
RMM:   6    -0.358121974451E+03    0.16533E-06   -0.32566E-07   193   0.112E-03
    4 T=   409. E= -.35480345E+03 F= -.35812197E+03 E0= -.35811908E+03  EK= 0.33318E+01 SP= -.17E-01 SK= 0.33E-02
       N       E                     dE             d eps       ncg     rms          rms(c)
RMM:   1    -0.357266019692E+03    0.85595E+00   -0.26651E-02   322   0.316E-01    0.916E-02
RMM:   2    -0.357266120784E+03   -0.10109E-03   -0.13268E-03   351   0.469E-02    0.503E-02
RMM:   3    -0.357266113363E+03    0.74204E-05   -0.90004E-05   339   0.141E-02    0.227E-02
RMM:   4    -0.357266110521E+03    0.28420E-05   -0.71127E-06   289   0.417E-03    0.667E-03
RMM:   5    -0.357266109321E+03    0.12003E-05   -0.70928E-07   192   0.167E-03    0.137E-03
RMM:   6    -0.357266109201E+03    0.11964E-06   -0.15122E-07   163   0.783E-04
    5 T=   308. E= -.35479186E+03 F= -.35726611E+03 E0= -.35725911E+03  EK= 0.25089E+01 SP= -.52E-01 SK= 0.18E-01
       N       E                     dE             d eps       ncg     rms          rms(c)
RMM:   1    -0.356571395619E+03    0.69471E+00   -0.19381E-02   322   0.237E-01    0.757E-02
RMM:   2    -0.356571499993E+03   -0.10437E-03   -0.13276E-03   342   0.428E-02    0.383E-02
RMM:   3    -0.356571497361E+03    0.26322E-05   -0.93890E-05   348   0.126E-02    0.174E-02
RMM:   4    -0.356571494541E+03    0.28201E-05   -0.60121E-06   271   0.395E-03    0.452E-03
RMM:   5    -0.356571493624E+03    0.91692E-06   -0.59543E-07   192   0.149E-03
    6 T=   228. E= -.35478211E+03 F= -.35657149E+03 E0= -.35655974E+03  EK= 0.18547E+01 SP= -.12E+00 SK= 0.56E-01
       N       E                     dE             d eps       ncg     rms          rms(c)
RMM:   1    -0.356187028679E+03    0.38447E+00   -0.12251E-02   322   0.175E-01    0.553E-02
RMM:   2    -0.356187099080E+03   -0.70400E-04   -0.97137E-04   340   0.351E-02    0.279E-02
RMM:   3    -0.356187097239E+03    0.18411E-05   -0.66410E-05   346   0.103E-02    0.135E-02
RMM:   4    -0.356187095656E+03    0.15823E-05   -0.51114E-06   257   0.360E-03    0.363E-03
RMM:   5    -0.356187094997E+03    0.65899E-06   -0.53242E-07   192   0.142E-03
    7 T=   186. E= -.35477914E+03 F= -.35618709E+03 E0= -.35617231E+03  EK= 0.15111E+01 SP= -.23E+00 SK= 0.13E+00
       N       E                     dE             d eps       ncg     rms          rms(c)
RMM:   1    -0.356159331881E+03    0.27764E-01   -0.61983E-03   322   0.124E-01    0.397E-02
RMM:   2    -0.356159373365E+03   -0.41484E-04   -0.50538E-04   337   0.244E-02    0.219E-02
RMM:   3    -0.356159374249E+03   -0.88477E-06   -0.35688E-05   344   0.744E-03    0.965E-03
RMM:   4    -0.356159374207E+03    0.42473E-07   -0.17978E-06   195   0.235E-03
    8 T=   188. E= -.35478264E+03 F= -.35615937E+03 E0= -.35614453E+03  EK= 0.15283E+01 SP= -.39E+00 SK= 0.24E+00
       N       E                     dE             d eps       ncg     rms          rms(c)
RMM:   1    -0.356434744161E+03   -0.27537E+00   -0.35808E-03   322   0.110E-01    0.320E-02
RMM:   2    -0.356434757148E+03   -0.12987E-04   -0.16575E-04   342   0.173E-02    0.189E-02
RMM:   3    -0.356434757132E+03    0.15687E-07   -0.15444E-05   332   0.559E-03    0.767E-03
RMM:   4    -0.356434757736E+03   -0.60380E-06   -0.11327E-06   193   0.173E-03
    9 T=   229. E= -.35479107E+03 F= -.35643476E+03 E0= -.35642258E+03  EK= 0.18665E+01 SP= -.60E+00 SK= 0.38E+00
       N       E                     dE             d eps       ncg     rms          rms(c)
RMM:   1    -0.356878741471E+03   -0.44398E+00   -0.58205E-03   322   0.138E-01    0.429E-02
RMM:   2    -0.356878752817E+03   -0.11345E-04   -0.26759E-04   332   0.219E-02    0.246E-02
RMM:   3    -0.356878751375E+03    0.14413E-05   -0.32855E-05   331   0.793E-03    0.943E-03
RMM:   4    -0.356878752693E+03   -0.13178E-05   -0.31666E-06   218   0.261E-03    0.332E-03
RMM:   5    -0.356878753370E+03   -0.67732E-06   -0.62897E-07   193   0.142E-03
   10 T=   296. E= -.35480213E+03 F= -.35687875E+03 E0= -.35687056E+03  EK= 0.24095E+01 SP= -.85E+00 SK= 0.52E+00
       N       E                     dE             d eps       ncg     rms          rms(c)
RMM:   1    -0.357313956060E+03   -0.43520E+00   -0.88957E-03   322   0.167E-01    0.528E-02
RMM:   2    -0.357313973647E+03   -0.17587E-04   -0.39668E-04   329   0.270E-02    0.292E-02
RMM:   3    -0.357313971265E+03    0.23826E-05   -0.51334E-05   336   0.987E-03    0.107E-02
RMM:   4    -0.357313972996E+03   -0.17313E-05   -0.45909E-06   235   0.310E-03    0.411E-03
RMM:   5    -0.357313974002E+03   -0.10064E-05   -0.78843E-07   193   0.163E-03    0.101E-03
RMM:   6    -0.357313974106E+03   -0.10321E-06   -0.15845E-07   166   0.801E-04
   11 T=   368. E= -.35481218E+03 F= -.35731397E+03 E0= -.35730931E+03  EK= 0.29951E+01 SP= -.11E+01 SK= 0.65E+00
       N       E                     dE             d eps       ncg     rms          rms(c)
RMM:   1    -0.357581950514E+03   -0.26798E+00   -0.11021E-02   322   0.179E-01    0.553E-02
RMM:   2    -0.357581990783E+03   -0.40269E-04   -0.53512E-04   332   0.306E-02    0.305E-02
RMM:   3    -0.357581990134E+03    0.64909E-06   -0.50359E-05   347   0.981E-03    0.127E-02
RMM:   4    -0.357581991803E+03   -0.16693E-05   -0.41794E-06   229   0.309E-03    0.381E-03
RMM:   5    -0.357581992565E+03   -0.76255E-06   -0.65448E-07   193   0.153E-03
   12 T=   426. E= -.35481922E+03 F= -.35758199E+03 E0= -.35757930E+03  EK= 0.34671E+01 SP= -.15E+01 SK= 0.75E+00
       N       E                     dE             d eps       ncg     rms          rms(c)
RMM:   1    -0.357578234535E+03    0.37573E-02   -0.11567E-02   322   0.172E-01    0.572E-02
RMM:   2    -0.357578290675E+03   -0.56140E-04   -0.63544E-04   328   0.320E-02    0.348E-02
RMM:   3    -0.357578291528E+03   -0.85337E-06   -0.55146E-05   348   0.101E-02    0.136E-02
RMM:   4    -0.357578292915E+03   -0.13864E-05   -0.35033E-06   219   0.290E-03    0.354E-03
RMM:   5    -0.357578293284E+03   -0.36966E-06   -0.78835E-07   193   0.154E-03
   13 T=   456. E= -.35481972E+03 F= -.35757829E+03 E0= -.35757610E+03  EK= 0.37129E+01 SP= -.18E+01 SK= 0.83E+00
       N       E                     dE             d eps       ncg     rms          rms(c)
RMM:   1    -0.357280415346E+03    0.29788E+00   -0.12291E-02   322   0.161E-01    0.571E-02
RMM:   2    -0.357280488743E+03   -0.73397E-04   -0.84774E-04   329   0.347E-02    0.340E-02
RMM:   3    -0.357280489211E+03   -0.46860E-06   -0.70919E-05   349   0.106E-02    0.124E-02
RMM:   4    -0.357280489440E+03   -0.22895E-06   -0.34555E-06   219   0.295E-03
   14 T=   453. E= -.35481883E+03 F= -.35728049E+03 E0= -.35727782E+03  EK= 0.36864E+01 SP= -.21E+01 SK= 0.91E+00
       N       E                     dE             d eps       ncg     rms          rms(c)
RMM:   1    -0.356736386827E+03    0.54410E+00   -0.15547E-02   322   0.173E-01    0.572E-02
RMM:   2    -0.356736490097E+03   -0.10327E-03   -0.11863E-03   329   0.398E-02    0.352E-02
RMM:   3    -0.356736491817E+03   -0.17204E-05   -0.95933E-05   357   0.119E-02    0.131E-02
RMM:   4    -0.356736491165E+03    0.65181E-06   -0.34580E-06   219   0.320E-03
   15 T=   420. E= -.35481283E+03 F= -.35673649E+03 E0= -.35673198E+03  EK= 0.34199E+01 SP= -.25E+01 SK= 0.10E+01
       N       E                     dE             d eps       ncg     rms          rms(c)
RMM:   1    -0.356057026904E+03    0.67946E+00   -0.19863E-02   322   0.196E-01    0.606E-02
RMM:   2    -0.356057160380E+03   -0.13348E-03   -0.15189E-03   327   0.449E-02    0.364E-02
RMM:   3    -0.356057161896E+03   -0.15152E-05   -0.11828E-04   358   0.133E-02    0.144E-02
RMM:   4    -0.356057160457E+03    0.14389E-05   -0.50844E-06   251   0.371E-03    0.322E-03
RMM:   5    -0.356057160202E+03    0.25485E-06   -0.82230E-07   192   0.156E-03
   16 T=   369. E= -.35480432E+03 F= -.35605716E+03 E0= -.35604863E+03  EK= 0.30073E+01 SP= -.29E+01 SK= 0.11E+01
       N       E                     dE             d eps       ncg     rms          rms(c)
RMM:   1    -0.355392867498E+03    0.66429E+00   -0.23248E-02   323   0.213E-01    0.674E-02
RMM:   2    -0.355393007554E+03   -0.14006E-03   -0.16483E-03   327   0.472E-02    0.407E-02
RMM:   3    -0.355393006275E+03    0.12790E-05   -0.12985E-04   351   0.143E-02    0.151E-02
RMM:   4    -0.355393004760E+03    0.15151E-05   -0.73908E-06   280   0.416E-03    0.385E-03
RMM:   5    -0.355393004218E+03    0.54227E-06   -0.11333E-06   191   0.173E-03
   17 T=   318. E= -.35479712E+03 F= -.35539300E+03 E0= -.35537886E+03  EK= 0.25886E+01 SP= -.33E+01 SK= 0.13E+01
       N       E                     dE             d eps       ncg     rms          rms(c)
RMM:   1    -0.354890304787E+03    0.50270E+00   -0.18061E-02   322   0.200E-01    0.661E-02
RMM:   2    -0.354890405295E+03   -0.10051E-03   -0.13290E-03   334   0.414E-02    0.379E-02
RMM:   3    -0.354890401141E+03    0.41533E-05   -0.11812E-04   343   0.134E-02    0.138E-02
RMM:   4    -0.354890399855E+03    0.12868E-05   -0.71972E-06   279   0.399E-03    0.416E-03
RMM:   5    -0.354890399079E+03    0.77507E-06   -0.12164E-06   191   0.179E-03
   18 T=   284. E= -.35479341E+03 F= -.35489040E+03 E0= -.35487120E+03  EK= 0.23129E+01 SP= -.37E+01 SK= 0.15E+01
       N       E                     dE             d eps       ncg     rms          rms(c)
RMM:   1    -0.354639451406E+03    0.25095E+00   -0.13970E-02   322   0.181E-01    0.601E-02
RMM:   2    -0.354639514151E+03   -0.62745E-04   -0.92465E-04   334   0.368E-02    0.355E-02
RMM:   3    -0.354639510304E+03    0.38472E-05   -0.93039E-05   336   0.123E-02    0.124E-02
RMM:   4    -0.354639509958E+03    0.34563E-06   -0.66098E-06   267   0.376E-03
   19 T=   281. E= -.35479363E+03 F= -.35463951E+03 E0= -.35461795E+03  EK= 0.22873E+01 SP= -.42E+01 SK= 0.18E+01
       N       E                     dE             d eps       ncg     rms          rms(c)
RMM:   1    -0.354662851984E+03   -0.23342E-01   -0.10876E-02   322   0.169E-01    0.483E-02
RMM:   2    -0.354662896364E+03   -0.44380E-04   -0.68086E-04   334   0.310E-02    0.296E-02
RMM:   3    -0.354662893695E+03    0.26689E-05   -0.75469E-05   338   0.109E-02    0.108E-02
RMM:   4    -0.354662893765E+03   -0.70704E-07   -0.44028E-06   232   0.314E-03
   20 T=   315. E= -.35479766E+03 F= -.35466289E+03 E0= -.35464243E+03  EK= 0.25626E+01 SP= -.47E+01 SK= 0.21E+01
       N       E                     dE             d eps       ncg     rms          rms(c)
RMM:   1    -0.354915477236E+03   -0.25258E+00   -0.11571E-02   322   0.183E-01    0.620E-02
RMM:   2    -0.354915516527E+03   -0.39291E-04   -0.63671E-04   334   0.316E-02    0.391E-02
RMM:   3    -0.354915512990E+03    0.35375E-05   -0.80021E-05   334   0.117E-02    0.115E-02
RMM:   4    -0.354915513548E+03   -0.55825E-06   -0.53396E-06   246   0.327E-03
   21 T=   384. E= -.35480787E+03 F= -.35491551E+03 E0= -.35489865E+03  EK= 0.31262E+01 SP= -.53E+01 SK= 0.23E+01
       N       E                     dE             d eps       ncg     rms          rms(c)
RMM:   1    -0.355288394094E+03   -0.37288E+00   -0.18942E-02   322   0.217E-01    0.613E-02
RMM:   2    -0.355288489231E+03   -0.95137E-04   -0.12843E-03   334   0.413E-02    0.362E-02
RMM:   3    -0.355288487311E+03    0.19193E-05   -0.11805E-04   345   0.137E-02    0.148E-02
RMM:   4    -0.355288488647E+03   -0.13363E-05   -0.73813E-06   290   0.405E-03    0.513E-03
RMM:   5    -0.355288489225E+03   -0.57783E-06   -0.10825E-06   192   0.175E-03
   22 T=   479. E= -.35482035E+03 F= -.35528849E+03 E0= -.35527599E+03  EK= 0.39040E+01 SP= -.59E+01 SK= 0.24E+01
       N       E                     dE             d eps       ncg     rms          rms(c)
RMM:   1    -0.355637932720E+03   -0.34944E+00   -0.28444E-02   322   0.251E-01    0.750E-02
RMM:   2    -0.355638108624E+03   -0.17590E-03   -0.20967E-03   333   0.511E-02    0.423E-02
RMM:   3    -0.355638112380E+03   -0.37558E-05   -0.16602E-04   349   0.159E-02    0.178E-02
RMM:   4    -0.355638114350E+03   -0.19701E-05   -0.97253E-06   319   0.470E-03    0.527E-03
RMM:   5    -0.355638115031E+03   -0.68105E-06   -0.93054E-07   193   0.166E-03
   23 T=   586. E= -.35483200E+03 F= -.35563812E+03 E0= -.35562930E+03  EK= 0.47720E+01 SP= -.65E+01 SK= 0.25E+01
       N       E                     dE             d eps       ncg     rms          rms(c)
RMM:   1    -0.355823066940E+03   -0.18495E+00   -0.37212E-02   322   0.278E-01    0.825E-02
RMM:   2    -0.355823320904E+03   -0.25396E-03   -0.28219E-03   334   0.596E-02    0.471E-02
RMM:   3    -0.355823330658E+03   -0.97541E-05   -0.20868E-04   354   0.174E-02    0.223E-02
RMM:   4    -0.355823332741E+03   -0.20827E-05   -0.11893E-05   325   0.526E-03    0.529E-03
RMM:   5    -0.355823333223E+03   -0.48217E-06   -0.89449E-07   194   0.165E-03
   24 T=   685. E= -.35484307E+03 F= -.35582333E+03 E0= -.35581661E+03  EK= 0.55817E+01 SP= -.71E+01 SK= 0.25E+01
       N       E                     dE             d eps       ncg     rms          rms(c)
RMM:   1    -0.355742786943E+03    0.80546E-01   -0.28018E-02   322   0.273E-01    0.832E-02
RMM:   2    -0.355742930149E+03   -0.14321E-03   -0.16700E-03   334   0.514E-02    0.472E-02
RMM:   3    -0.355742932671E+03   -0.25217E-05   -0.14296E-04   354   0.156E-02    0.207E-02
RMM:   4    -0.355742933895E+03   -0.12242E-05   -0.85132E-06   314   0.447E-03    0.558E-03
RMM:   5    -0.355742934195E+03   -0.30061E-06   -0.91232E-07   193   0.159E-03
   25 T=   762. E= -.35485162E+03 F= -.35574293E+03 E0= -.35573645E+03  EK= 0.62040E+01 SP= -.76E+01 SK= 0.23E+01
       N       E                     dE             d eps       ncg     rms          rms(c)
RMM:   1    -0.355333762800E+03    0.40917E+00   -0.35257E-02   322   0.286E-01    0.971E-02
RMM:   2    -0.355333987490E+03   -0.22469E-03   -0.24997E-03   331   0.593E-02    0.573E-02
RMM:   3    -0.355333994131E+03   -0.66409E-05   -0.20714E-04   357   0.177E-02    0.222E-02
RMM:   4    -0.355333995368E+03   -0.12376E-05   -0.95300E-06   311   0.481E-03    0.517E-03
RMM:   5    -0.355333995395E+03   -0.27121E-07   -0.13796E-06   193   0.181E-03
   26 T=   803. E= -.35485102E+03 F= -.35533400E+03 E0= -.35532631E+03  EK= 0.65398E+01 SP= -.82E+01 SK= 0.21E+01
       N       E                     dE             d eps       ncg     rms          rms(c)
RMM:   1    -0.354619039526E+03    0.71496E+00   -0.30681E-02   322   0.284E-01    0.952E-02
RMM:   2    -0.354619202120E+03   -0.16259E-03   -0.19931E-03   334   0.549E-02    0.585E-02
RMM:   3    -0.354619200116E+03    0.20048E-05   -0.18740E-04   346   0.173E-02    0.205E-02
RMM:   4    -0.354619200320E+03   -0.20467E-06   -0.11556E-05   317   0.492E-03    0.534E-03
RMM:   5    -0.354619199895E+03    0.42489E-06   -0.25544E-06   210   0.220E-03
   27 T=   805. E= -.35484998E+03 F= -.35461920E+03 E0= -.35460916E+03  EK= 0.65563E+01 SP= -.87E+01 SK= 0.19E+01
       N       E                     dE             d eps       ncg     rms          rms(c)
RMM:   1    -0.353693472752E+03    0.92573E+00   -0.39932E-02   322   0.312E-01    0.105E-01
RMM:   2    -0.353693719963E+03   -0.24721E-03   -0.29937E-03   330   0.632E-02    0.645E-02
RMM:   3    -0.353693720400E+03   -0.43699E-06   -0.27729E-04   353   0.202E-02    0.211E-02
RMM:   4    -0.353693720037E+03    0.36363E-06   -0.14238E-05   329   0.540E-03    0.565E-03
RMM:   5    -0.353693719425E+03    0.61166E-06   -0.28532E-06   212   0.231E-03
   28 T=   776. E= -.35484634E+03 F= -.35369372E+03 E0= -.35368004E+03  EK= 0.63175E+01 SP= -.92E+01 SK= 0.18E+01
       N       E                     dE             d eps       ncg     rms          rms(c)
RMM:   1    -0.352700324510E+03    0.99340E+00   -0.50674E-02   323   0.342E-01    0.110E-01
RMM:   2    -0.352700615216E+03   -0.29071E-03   -0.35225E-03   332   0.699E-02    0.658E-02
RMM:   3    -0.352700614203E+03    0.10134E-05   -0.30708E-04   354   0.217E-02    0.224E-02
RMM:   4    -0.352700613633E+03    0.56905E-06   -0.16266E-05   340   0.585E-03    0.615E-03
RMM:   5    -0.352700612899E+03    0.73432E-06   -0.28774E-06   215   0.236E-03
   29 T=   731. E= -.35483778E+03 F= -.35270061E+03 E0= -.35268284E+03  EK= 0.59545E+01 SP= -.97E+01 SK= 0.16E+01
       N       E                     dE             d eps       ncg     rms          rms(c)
RMM:   1    -0.351815519234E+03    0.88509E+00   -0.48079E-02   322   0.355E-01    0.102E-01
RMM:   2    -0.351815776280E+03   -0.25705E-03   -0.33355E-03   341   0.693E-02    0.623E-02
RMM:   3    -0.351815767908E+03    0.83717E-05   -0.29930E-04   344   0.216E-02    0.246E-02
RMM:   4    -0.351815766958E+03    0.94961E-06   -0.20597E-05   344   0.648E-03    0.722E-03
RMM:   5    -0.351815766027E+03    0.93172E-06   -0.30902E-06   220   0.254E-03
   30 T=   693. E= -.35482777E+03 F= -.35181577E+03 E0= -.35179445E+03  EK= 0.56449E+01 SP= -.10E+02 SK= 0.16E+01
       N       E                     dE             d eps       ncg     rms          rms(c)
RMM:   1    -0.351191472237E+03    0.62429E+00   -0.51814E-02   323   0.358E-01    0.108E-01
RMM:   2    -0.351191775238E+03   -0.30300E-03   -0.37357E-03   346   0.710E-02    0.693E-02
RMM:   3    -0.351191770255E+03    0.49834E-05   -0.30388E-04   342   0.216E-02    0.266E-02
RMM:   4    -0.351191769615E+03    0.63941E-06   -0.19463E-05   346   0.637E-03    0.721E-03
RMM:   5    -0.351191768858E+03    0.75781E-06   -0.29029E-06   212   0.248E-03
   31 T=   682. E= -.35482660E+03 F= -.35119177E+03 E0= -.35116754E+03  EK= 0.55521E+01 SP= -.11E+02 SK= 0.15E+01
       N       E                     dE             d eps       ncg     rms          rms(c)
RMM:   1    -0.350885404657E+03    0.30636E+00   -0.45983E-02   323   0.351E-01    0.110E-01
RMM:   2    -0.350885591295E+03   -0.18664E-03   -0.29567E-03   351   0.666E-02    0.618E-02
RMM:   3    -0.350885575427E+03    0.15868E-04   -0.25127E-04   335   0.211E-02    0.242E-02
RMM:   4    -0.350885576445E+03   -0.10176E-05   -0.22421E-05   345   0.663E-03    0.776E-03
RMM:   5    -0.350885576052E+03    0.39283E-06   -0.34461E-06   228   0.269E-03
   32 T=   708. E= -.35482938E+03 F= -.35088558E+03 E0= -.35085816E+03  EK= 0.57661E+01 SP= -.11E+02 SK= 0.14E+01
       N       E                     dE             d eps       ncg     rms          rms(c)
RMM:   1    -0.350864530808E+03    0.21046E-01   -0.49694E-02   322   0.361E-01    0.108E-01
RMM:   2    -0.350864806505E+03   -0.27570E-03   -0.35699E-03   345   0.704E-02    0.653E-02
RMM:   3    -0.350864803006E+03    0.34986E-05   -0.28184E-04   344   0.212E-02    0.291E-02
RMM:   4    -0.350864804284E+03   -0.12770E-05   -0.20359E-05   334   0.650E-03    0.777E-03
RMM:   5    -0.350864804238E+03    0.45326E-07   -0.19594E-06   196   0.230E-03
   33 T=   771. E= -.35483843E+03 F= -.35086480E+03 E0= -.35083279E+03  EK= 0.62771E+01 SP= -.12E+02 SK= 0.13E+01
       N       E                     dE             d eps       ncg     rms          rms(c)
RMM:   1    -0.351008954923E+03   -0.14415E+00   -0.44804E-02   322   0.367E-01    0.106E-01
RMM:   2    -0.351009132151E+03   -0.17723E-03   -0.27127E-03   348   0.650E-02    0.638E-02
RMM:   3    -0.351009121689E+03    0.10462E-04   -0.22919E-04   341   0.205E-02    0.301E-02
RMM:   4    -0.351009124062E+03   -0.23735E-05   -0.20848E-05   336   0.650E-03    0.922E-03
RMM:   5    -0.351009124769E+03   -0.70660E-06   -0.18354E-06   194   0.231E-03
   34 T=   857. E= -.35485214E+03 F= -.35100912E+03 E0= -.35097156E+03  EK= 0.69764E+01 SP= -.12E+02 SK= 0.12E+01
       N       E                     dE             d eps       ncg     rms          rms(c)
RMM:   1    -0.351156120091E+03   -0.14700E+00   -0.54357E-02   322   0.392E-01    0.128E-01
RMM:   2    -0.351156374364E+03   -0.25427E-03   -0.35502E-03   345   0.718E-02    0.726E-02
RMM:   3    -0.351156364632E+03    0.97318E-05   -0.30203E-04   343   0.227E-02    0.316E-02
RMM:   4    -0.351156368162E+03   -0.35302E-05   -0.25276E-05   338   0.713E-03    0.924E-03
RMM:   5    -0.351156368801E+03   -0.63922E-06   -0.27013E-06   206   0.262E-03
   35 T=   945. E= -.35486204E+03 F= -.35115637E+03 E0= -.35111438E+03  EK= 0.76983E+01 SP= -.12E+02 SK= 0.95E+00
       N       E                     dE             d eps       ncg     rms          rms(c)
RMM:   1    -0.351168801294E+03   -0.12433E-01   -0.58154E-02   322   0.406E-01    0.127E-01
RMM:   2    -0.351169085064E+03   -0.28377E-03   -0.38507E-03   339   0.724E-02    0.740E-02
RMM:   3    -0.351169074002E+03    0.11062E-04   -0.34731E-04   343   0.245E-02    0.294E-02
RMM:   4    -0.351169077225E+03   -0.32232E-05   -0.25254E-05   353   0.688E-03    0.107E-02
RMM:   5    -0.351169077778E+03   -0.55257E-06   -0.33069E-06   223   0.269E-03
   36 T=  1016. E= -.35486977E+03 F= -.35116908E+03 E0= -.35112508E+03  EK= 0.82722E+01 SP= -.13E+02 SK= 0.73E+00
       N       E                     dE             d eps       ncg     rms          rms(c)
RMM:   1    -0.350962131962E+03    0.20695E+00   -0.67345E-02   322   0.413E-01    0.132E-01
RMM:   2    -0.350962563400E+03   -0.43144E-03   -0.51821E-03   336   0.801E-02    0.807E-02
RMM:   3    -0.350962570857E+03   -0.74576E-05   -0.44042E-04   353   0.254E-02    0.310E-02
RMM:   4    -0.350962573205E+03   -0.23472E-05   -0.21189E-05   344   0.684E-03    0.933E-03
RMM:   5    -0.350962573613E+03   -0.40784E-06   -0.22749E-06   198   0.239E-03
   37 T=  1053. E= -.35487371E+03 F= -.35096257E+03 E0= -.35091899E+03  EK= 0.85755E+01 SP= -.13E+02 SK= 0.51E+00
       N       E                     dE             d eps       ncg     rms          rms(c)
RMM:   1    -0.350513246059E+03    0.44933E+00   -0.78181E-02   322   0.423E-01    0.137E-01
RMM:   2    -0.350513776714E+03   -0.53066E-03   -0.63842E-03   337   0.885E-02    0.778E-02
RMM:   3    -0.350513792674E+03   -0.15960E-04   -0.50951E-04   351   0.268E-02    0.304E-02
RMM:   4    -0.350513794582E+03   -0.19082E-05   -0.24499E-05   339   0.768E-03    0.794E-03
RMM:   5    -0.350513794648E+03   -0.66029E-07   -0.27037E-06   208   0.255E-03
   38 T=  1051. E= -.35486811E+03 F= -.35051379E+03 E0= -.35047191E+03  EK= 0.85584E+01 SP= -.13E+02 SK= 0.32E+00
       N       E                     dE             d eps       ncg     rms          rms(c)
RMM:   1    -0.349861902556E+03    0.65189E+00   -0.72283E-02   322   0.421E-01    0.124E-01
RMM:   2    -0.349862308634E+03   -0.40608E-03   -0.52282E-03   339   0.842E-02    0.740E-02
RMM:   3    -0.349862313798E+03   -0.51639E-05   -0.43010E-04   350   0.258E-02    0.286E-02
RMM:   4    -0.349862314370E+03   -0.57204E-06   -0.24961E-05   342   0.748E-03    0.786E-03
RMM:   5    -0.349862314161E+03    0.20970E-06   -0.24623E-06   208   0.247E-03
   39 T=  1011. E= -.35486507E+03 F= -.34986231E+03 E0= -.34982166E+03  EK= 0.82335E+01 SP= -.13E+02 SK= 0.18E+00
       N       E                     dE             d eps       ncg     rms          rms(c)
RMM:   1    -0.349068175529E+03    0.79414E+00   -0.84330E-02   323   0.434E-01    0.128E-01
RMM:   2    -0.349068729206E+03   -0.55368E-03   -0.66664E-03   340   0.910E-02    0.793E-02
RMM:   3    -0.349068742892E+03   -0.13686E-04   -0.53339E-04   353   0.278E-02    0.304E-02
RMM:   4    -0.349068743791E+03   -0.89861E-06   -0.27215E-05   346   0.779E-03    0.786E-03
RMM:   5    -0.349068743291E+03    0.49938E-06   -0.27391E-06   209   0.257E-03
   40 T=   942. E= -.35485772E+03 F= -.34906874E+03 E0= -.34902770E+03  EK= 0.76720E+01 SP= -.14E+02 SK= 0.91E-01
       N       E                     dE             d eps       ncg     rms          rms(c)
RMM:   1    -0.348247938941E+03    0.82080E+00   -0.90989E-02   323   0.450E-01    0.118E-01
RMM:   2    -0.348248510437E+03   -0.57150E-03   -0.70119E-03   340   0.929E-02    0.692E-02
RMM:   3    -0.348248511529E+03   -0.10916E-05   -0.52884E-04   349   0.287E-02    0.284E-02
RMM:   4    -0.348248511332E+03    0.19720E-06   -0.33785E-05   345   0.835E-03    0.854E-03
RMM:   5    -0.348248510362E+03    0.96982E-06   -0.33912E-06   227   0.288E-03
   41 T=   860. E= -.35484779E+03 F= -.34824851E+03 E0= -.34820544E+03  EK= 0.70060E+01 SP= -.14E+02 SK= 0.42E-01
       N       E                     dE             d eps       ncg     rms          rms(c)
RMM:   1    -0.347554565541E+03    0.69395E+00   -0.10550E-01   322   0.477E-01    0.125E-01
RMM:   2    -0.347555249621E+03   -0.68408E-03   -0.84419E-03   333   0.103E-01    0.803E-02
RMM:   3    -0.347555259558E+03   -0.99376E-05   -0.71756E-04   355   0.317E-02    0.340E-02
RMM:   4    -0.347555258159E+03    0.13989E-05   -0.37677E-05   345   0.898E-03    0.961E-03
RMM:   5    -0.347555257162E+03    0.99693E-06   -0.29005E-06   209   0.285E-03
   42 T=   787. E= -.35483542E+03 F= -.34755526E+03 E0= -.34750987E+03  EK= 0.64123E+01 SP= -.14E+02 SK= 0.17E-01
       N       E                     dE             d eps       ncg     rms          rms(c)
RMM:   1    -0.347174434831E+03    0.38082E+00   -0.79420E-02   322   0.457E-01    0.134E-01
RMM:   2    -0.347174841833E+03   -0.40700E-03   -0.57609E-03   338   0.870E-02    0.840E-02
RMM:   3    -0.347174822365E+03    0.19468E-04   -0.54603E-04   343   0.289E-02    0.311E-02
RMM:   4    -0.347174821537E+03    0.82760E-06   -0.38217E-05   356   0.842E-03    0.100E-02
RMM:   5    -0.347174820109E+03    0.14282E-05   -0.46398E-06   251   0.309E-03    0.260E-03
RMM:   6    -0.347174819950E+03    0.15950E-06   -0.44672E-07   192   0.130E-03
   43 T=   748. E= -.35482805E+03 F= -.34717482E+03 E0= -.34712883E+03  EK= 0.60899E+01 SP= -.14E+02 SK= 0.62E-02
       N       E                     dE             d eps       ncg     rms          rms(c)
RMM:   1    -0.347237910943E+03   -0.63091E-01   -0.80455E-02   322   0.451E-01    0.121E-01
RMM:   2    -0.347238300868E+03   -0.38993E-03   -0.57444E-03   335   0.872E-02    0.740E-02
RMM:   3    -0.347238282823E+03    0.18045E-04   -0.51961E-04   345   0.284E-02    0.313E-02
RMM:   4    -0.347238281515E+03    0.13086E-05   -0.40077E-05   345   0.892E-03    0.102E-02
RMM:   5    -0.347238280632E+03    0.88251E-06   -0.37092E-06   229   0.301E-03
   44 T=   759. E= -.35482532E+03 F= -.34723828E+03 E0= -.34719513E+03  EK= 0.61818E+01 SP= -.14E+02 SK= 0.93E-03
       N       E                     dE             d eps       ncg     rms          rms(c)
RMM:   1    -0.347763598817E+03   -0.52532E+00   -0.58235E-02   322   0.418E-01    0.115E-01
RMM:   2    -0.347763789944E+03   -0.19113E-03   -0.35336E-03   340   0.713E-02    0.675E-02
RMM:   3    -0.347763764992E+03    0.24951E-04   -0.36313E-04   343   0.248E-02    0.266E-02
RMM:   4    -0.347763765426E+03   -0.43397E-06   -0.29585E-05   356   0.747E-03    0.101E-02
RMM:   5    -0.347763765298E+03    0.12839E-06   -0.28917E-06   210   0.274E-03
   45 T=   823. E= -.35483201E+03 F= -.34776377E+03 E0= -.34772755E+03  EK= 0.67007E+01 SP= -.14E+02 SK= 0.90E-03
       N       E                     dE             d eps       ncg     rms          rms(c)
RMM:   1    -0.348620825686E+03   -0.85706E+00   -0.60782E-02   323   0.413E-01    0.122E-01
RMM:   2    -0.348621043880E+03   -0.21819E-03   -0.41957E-03   347   0.744E-02    0.692E-02
RMM:   3    -0.348621020624E+03    0.23256E-04   -0.33394E-04   339   0.245E-02    0.286E-02
RMM:   4    -0.348621022601E+03   -0.19770E-05   -0.33179E-05   346   0.799E-03    0.978E-03
RMM:   5    -0.348621023423E+03   -0.82211E-06   -0.31803E-06   217   0.282E-03
   46 T=   921. E= -.35485204E+03 F= -.34862102E+03 E0= -.34859474E+03  EK= 0.74975E+01 SP= -.14E+02 SK= 0.14E-01
       N       E                     dE             d eps       ncg     rms          rms(c)
RMM:   1    -0.349558909892E+03   -0.93789E+00   -0.68024E-02   322   0.425E-01    0.138E-01
RMM:   2    -0.349559122176E+03   -0.21228E-03   -0.46316E-03   343   0.797E-02    0.776E-02
RMM:   3    -0.349559098456E+03    0.23721E-04   -0.42600E-04   337   0.270E-02    0.301E-02
RMM:   4    -0.349559102301E+03   -0.38452E-05   -0.42330E-05   350   0.904E-03    0.986E-03
RMM:   5    -0.349559103557E+03   -0.12563E-05   -0.40582E-06   235   0.307E-03    0.286E-03
RMM:   6    -0.349559103928E+03   -0.37024E-06   -0.52348E-07   191   0.138E-03
   47 T=  1020. E= -.35487269E+03 F= -.34955910E+03 E0= -.34954187E+03  EK= 0.83057E+01 SP= -.14E+02 SK= 0.56E-01
       N       E                     dE             d eps       ncg     rms          rms(c)
RMM:   1    -0.350313754159E+03   -0.75465E+00   -0.85186E-02   323   0.445E-01    0.138E-01
RMM:   2    -0.350314159814E+03   -0.40566E-03   -0.56558E-03   336   0.885E-02    0.760E-02
RMM:   3    -0.350314160655E+03   -0.84079E-06   -0.50986E-04   354   0.283E-02    0.286E-02
RMM:   4    -0.350314164692E+03   -0.40375E-05   -0.32773E-05   351   0.821E-03    0.893E-03
RMM:   5    -0.350314165689E+03   -0.99650E-06   -0.29286E-06   209   0.277E-03
   48 T=  1086. E= -.35488449E+03 F= -.35031417E+03 E0= -.35030095E+03  EK= 0.88401E+01 SP= -.14E+02 SK= 0.15E+00
       N       E                     dE             d eps       ncg     rms          rms(c)
RMM:   1    -0.350712231794E+03   -0.39807E+00   -0.10426E-01   322   0.447E-01    0.128E-01
RMM:   2    -0.350712846327E+03   -0.61453E-03   -0.78406E-03   337   0.969E-02    0.774E-02
RMM:   3    -0.350712861869E+03   -0.15543E-04   -0.64937E-04   355   0.305E-02    0.300E-02
RMM:   4    -0.350712865903E+03   -0.40336E-05   -0.33361E-05   353   0.843E-03    0.936E-03
RMM:   5    -0.350712866491E+03   -0.58803E-06   -0.30072E-06   216   0.276E-03
   49 T=  1095. E= -.35487994E+03 F= -.35071287E+03 E0= -.35069739E+03  EK= 0.89195E+01 SP= -.13E+02 SK= 0.30E+00
       N       E                     dE             d eps       ncg     rms          rms(c)
RMM:   1    -0.350731815256E+03   -0.18949E-01   -0.12084E-01   325   0.445E-01    0.128E-01
RMM:   2    -0.350732713220E+03   -0.89796E-03   -0.10300E-02   336   0.106E-01    0.773E-02
RMM:   3    -0.350732752168E+03   -0.38948E-04   -0.80647E-04   358   0.324E-02    0.288E-02
RMM:   4    -0.350732755036E+03   -0.28688E-05   -0.33973E-05   348   0.875E-03    0.823E-03
RMM:   5    -0.350732754983E+03    0.53111E-07   -0.30098E-06   213   0.271E-03
   50 T=  1046. E= -.35487262E+03 F= -.35073275E+03 E0= -.35070976E+03  EK= 0.85216E+01 SP= -.13E+02 SK= 0.49E+00
       N       E                     dE             d eps       ncg     rms          rms(c)
RMM:   1    -0.350450618806E+03    0.28214E+00   -0.12974E-01   327   0.452E-01    0.132E-01
RMM:   2    -0.350451611338E+03   -0.99253E-03   -0.10981E-02   340   0.112E-01    0.796E-02
RMM:   3    -0.350451650473E+03   -0.39136E-04   -0.78783E-04   354   0.322E-02    0.281E-02
RMM:   4    -0.350451653150E+03   -0.26765E-05   -0.35679E-05   346   0.893E-03    0.713E-03
RMM:   5    -0.350451652468E+03    0.68167E-06   -0.40178E-06   238   0.291E-03
   51 T=   954. E= -.35485727E+03 F= -.35045165E+03 E0= -.35041890E+03  EK= 0.77696E+01 SP= -.13E+02 SK= 0.69E+00
       N       E                     dE             d eps       ncg     rms          rms(c)
RMM:   1    -0.350056506755E+03    0.39515E+00   -0.97937E-02   322   0.438E-01    0.122E-01
RMM:   2    -0.350057272524E+03   -0.76577E-03   -0.93401E-03   333   0.983E-02    0.712E-02
RMM:   3    -0.350057292936E+03   -0.20412E-04   -0.71666E-04   355   0.307E-02    0.281E-02
RMM:   4    -0.350057292029E+03    0.90699E-06   -0.32705E-05   344   0.849E-03    0.854E-03
RMM:   5    -0.350057291051E+03    0.97867E-06   -0.27991E-06   211   0.271E-03
   52 T=   846. E= -.35484229E+03 F= -.35005729E+03 E0= -.35001611E+03  EK= 0.68900E+01 SP= -.13E+02 SK= 0.86E+00
       N       E                     dE             d eps       ncg     rms          rms(c)
RMM:   1    -0.349747208214E+03    0.31008E+00   -0.99044E-02   325   0.430E-01    0.116E-01
RMM:   2    -0.349747933199E+03   -0.72499E-03   -0.88346E-03   337   0.965E-02    0.672E-02
RMM:   3    -0.349747955243E+03   -0.22044E-04   -0.66200E-04   356   0.291E-02    0.287E-02
RMM:   4    -0.349747953463E+03    0.17801E-05   -0.30182E-05   337   0.826E-03    0.815E-03
RMM:   5    -0.349747952453E+03    0.10106E-05   -0.23254E-06   201   0.259E-03    0.245E-03
RMM:   6    -0.349747952181E+03    0.27159E-06   -0.67243E-07   192   0.145E-03
   53 T=   751. E= -.35482739E+03 F= -.34974795E+03 E0= -.34970133E+03  EK= 0.61135E+01 SP= -.12E+02 SK= 0.98E+00
       N       E                     dE             d eps       ncg     rms          rms(c)
RMM:   1    -0.349684824519E+03    0.63128E-01   -0.82723E-02   325   0.402E-01    0.112E-01
RMM:   2    -0.349685389000E+03   -0.56448E-03   -0.66542E-03   333   0.887E-02    0.676E-02
RMM:   3    -0.349685403186E+03   -0.14186E-04   -0.54291E-04   358   0.269E-02    0.274E-02
RMM:   4    -0.349685401814E+03    0.13722E-05   -0.24948E-05   344   0.743E-03    0.773E-03
RMM:   5    -0.349685400831E+03    0.98235E-06   -0.19546E-06   195   0.237E-03
   54 T=   688. E= -.35481891E+03 F= -.34968540E+03 E0= -.34963644E+03  EK= 0.56038E+01 SP= -.12E+02 SK= 0.11E+01
       N       E                     dE             d eps       ncg     rms          rms(c)
RMM:   1    -0.349955568991E+03   -0.27017E+00   -0.76269E-02   327   0.383E-01    0.946E-02
RMM:   2    -0.349956084029E+03   -0.51504E-03   -0.60982E-03   334   0.835E-02    0.582E-02
RMM:   3    -0.349956091955E+03   -0.79261E-05   -0.45996E-04   360   0.254E-02    0.252E-02
RMM:   4    -0.349956090973E+03    0.98249E-06   -0.23256E-05   343   0.710E-03    0.770E-03
RMM:   5    -0.349956090352E+03    0.62118E-06   -0.17490E-06   195   0.228E-03
   55 T=   668. E= -.35481383E+03 F= -.34995609E+03 E0= -.34990774E+03  EK= 0.54378E+01 SP= -.11E+02 SK= 0.11E+01
       N       E                     dE             d eps       ncg     rms          rms(c)
RMM:   1    -0.350585090695E+03   -0.62900E+00   -0.72255E-02   325   0.373E-01    0.996E-02
RMM:   2    -0.350585606061E+03   -0.51537E-03   -0.61677E-03   332   0.810E-02    0.611E-02
RMM:   3    -0.350585616804E+03   -0.10744E-04   -0.48658E-04   357   0.254E-02    0.252E-02
RMM:   4    -0.350585616646E+03    0.15809E-06   -0.23700E-05   349   0.694E-03    0.737E-03
RMM:   5    -0.350585616177E+03    0.46914E-06   -0.18424E-06   194   0.230E-03
   56 T=   689. E= -.35481511E+03 F= -.35058562E+03 E0= -.35054102E+03  EK= 0.56133E+01 SP= -.11E+02 SK= 0.12E+01
       N       E                     dE             d eps       ncg     rms          rms(c)
RMM:   1    -0.351517292393E+03   -0.93168E+00   -0.64044E-02   325   0.360E-01    0.969E-02
RMM:   2    -0.351517703589E+03   -0.41120E-03   -0.50797E-03   332   0.771E-02    0.579E-02
RMM:   3    -0.351517712026E+03   -0.84375E-05   -0.42073E-04   360   0.238E-02    0.244E-02
RMM:   4    -0.351517712619E+03   -0.59245E-06   -0.20333E-05   337   0.668E-03    0.696E-03
RMM:   5    -0.351517712674E+03   -0.54948E-07   -0.17099E-06   193   0.220E-03
   57 T=   742. E= -.35482151E+03 F= -.35151771E+03 E0= -.35148023E+03  EK= 0.60459E+01 SP= -.11E+02 SK= 0.12E+01
       N       E                     dE             d eps       ncg     rms          rms(c)
RMM:   1    -0.352621643558E+03   -0.11039E+01   -0.64324E-02   323   0.363E-01    0.100E-01
RMM:   2    -0.352622126161E+03   -0.48260E-03   -0.57852E-03   334   0.787E-02    0.617E-02
RMM:   3    -0.352622139409E+03   -0.13247E-04   -0.45396E-04   358   0.243E-02    0.268E-02
RMM:   4    -0.352622140912E+03   -0.15032E-05   -0.20657E-05   333   0.684E-03    0.726E-03
RMM:   5    -0.352622141359E+03   -0.44713E-06   -0.17793E-06   194   0.226E-03
   58 T=   808. E= -.35483059E+03 F= -.35262214E+03 E0= -.35259429E+03  EK= 0.65818E+01 SP= -.10E+02 SK= 0.14E+01
       N       E                     dE             d eps       ncg     rms          rms(c)
RMM:   1    -0.353735241000E+03   -0.11131E+01   -0.70083E-02   322   0.373E-01    0.105E-01
RMM:   2    -0.353735792004E+03   -0.55100E-03   -0.64533E-03   331   0.825E-02    0.602E-02
RMM:   3    -0.353735810011E+03   -0.18007E-04   -0.50611E-04   356   0.257E-02    0.259E-02
RMM:   4    -0.353735812219E+03   -0.22083E-05   -0.23388E-05   337   0.723E-03    0.750E-03
RMM:   5    -0.353735812799E+03   -0.57986E-06   -0.20362E-06   198   0.233E-03
   59 T=   865. E= -.35483957E+03 F= -.35373581E+03 E0= -.35371786E+03  EK= 0.70448E+01 SP= -.97E+01 SK= 0.16E+01
       N       E                     dE             d eps       ncg     rms          rms(c)
RMM:   1    -0.354710483930E+03   -0.97467E+00   -0.71814E-02   322   0.378E-01    0.107E-01
RMM:   2    -0.354711029618E+03   -0.54569E-03   -0.61660E-03   330   0.834E-02    0.648E-02
RMM:   3    -0.354711046138E+03   -0.16520E-04   -0.46987E-04   358   0.253E-02    0.276E-02
RMM:   4    -0.354711048161E+03   -0.20223E-05   -0.22405E-05   335   0.707E-03    0.753E-03
RMM:   5    -0.354711048546E+03   -0.38572E-06   -0.20156E-06   196   0.230E-03
   60 T=   895. E= -.35484556E+03 F= -.35471105E+03 E0= -.35470081E+03  EK= 0.72902E+01 SP= -.92E+01 SK= 0.18E+01
       N       E                     dE             d eps       ncg     rms          rms(c)
RMM:   1    -0.355441574319E+03   -0.73053E+00   -0.74326E-02   323   0.375E-01    0.108E-01
RMM:   2    -0.355442122780E+03   -0.54846E-03   -0.60182E-03   330   0.855E-02    0.661E-02
RMM:   3    -0.355442141780E+03   -0.19000E-04   -0.44442E-04   358   0.254E-02    0.280E-02
RMM:   4    -0.355442144201E+03   -0.24208E-05   -0.22734E-05   334   0.722E-03    0.683E-03
RMM:   5    -0.355442144356E+03   -0.15463E-06   -0.20032E-06   196   0.231E-03
   61 T=   889. E= -.35484364E+03 F= -.35544214E+03 E0= -.35543677E+03  EK= 0.72357E+01 SP= -.87E+01 SK= 0.21E+01
       N       E                     dE             d eps       ncg     rms          rms(c)
RMM:   1    -0.355900437654E+03   -0.45829E+00   -0.71600E-02   323   0.361E-01    0.105E-01
RMM:   2    -0.355900921651E+03   -0.48400E-03   -0.53216E-03   330   0.843E-02    0.642E-02
RMM:   3    -0.355900937274E+03   -0.15624E-04   -0.39909E-04   357   0.247E-02    0.266E-02
RMM:   4    -0.355900938786E+03   -0.15112E-05   -0.21880E-05   329   0.720E-03    0.610E-03
RMM:   5    -0.355900938553E+03    0.23282E-06   -0.20542E-06   198   0.228E-03
   62 T=   845. E= -.35484071E+03 F= -.35590094E+03 E0= -.35589814E+03  EK= 0.68819E+01 SP= -.81E+01 SK= 0.23E+01
       N       E                     dE             d eps       ncg     rms          rms(c)
RMM:   1    -0.356113980264E+03   -0.21304E+00   -0.60964E-02   322   0.338E-01    0.101E-01
RMM:   2    -0.356114385390E+03   -0.40513E-03   -0.45476E-03   331   0.775E-02    0.601E-02
RMM:   3    -0.356114398687E+03   -0.13297E-04   -0.35500E-04   357   0.227E-02    0.239E-02
RMM:   4    -0.356114399499E+03   -0.81141E-06   -0.17814E-05   328   0.642E-03    0.562E-03
RMM:   5    -0.356114399138E+03    0.36039E-06   -0.18401E-06   196   0.211E-03
   63 T=   774. E= -.35483346E+03 F= -.35611440E+03 E0= -.35611263E+03  EK= 0.63020E+01 SP= -.76E+01 SK= 0.25E+01
       N       E                     dE             d eps       ncg     rms          rms(c)
RMM:   1    -0.356145296910E+03   -0.30897E-01   -0.56999E-02   323   0.322E-01    0.884E-02
RMM:   2    -0.356145684787E+03   -0.38788E-03   -0.43495E-03   329   0.756E-02    0.542E-02
RMM:   3    -0.356145698289E+03   -0.13502E-04   -0.32939E-04   359   0.223E-02    0.219E-02
RMM:   4    -0.356145698585E+03   -0.29622E-06   -0.15495E-05   328   0.619E-03    0.544E-03
RMM:   5    -0.356145698187E+03    0.39883E-06   -0.15650E-06   194   0.200E-03
   64 T=   687. E= -.35482734E+03 F= -.35614570E+03 E0= -.35614393E+03  EK= 0.55922E+01 SP= -.70E+01 SK= 0.27E+01
       N       E                     dE             d eps       ncg     rms          rms(c)
RMM:   1    -0.356059005197E+03    0.86693E-01   -0.55748E-02   325   0.301E-01    0.974E-02
RMM:   2    -0.356059375699E+03   -0.37050E-03   -0.40548E-03   333   0.713E-02    0.590E-02
RMM:   3    -0.356059391825E+03   -0.16126E-04   -0.31356E-04   357   0.209E-02    0.202E-02
RMM:   4    -0.356059392424E+03   -0.59831E-06   -0.12347E-05   314   0.553E-03    0.453E-03
RMM:   5    -0.356059391992E+03    0.43125E-06   -0.18204E-06   194   0.203E-03
   65 T=   595. E= -.35482328E+03 F= -.35605939E+03 E0= -.35605681E+03  EK= 0.48435E+01 SP= -.63E+01 SK= 0.27E+01
       N       E                     dE             d eps       ncg     rms          rms(c)
RMM:   1    -0.355907809950E+03    0.15158E+00   -0.35962E-02   323   0.269E-01    0.760E-02
RMM:   2    -0.355908045504E+03   -0.23555E-03   -0.26000E-03   330   0.599E-02    0.460E-02
RMM:   3    -0.355908052777E+03   -0.72723E-05   -0.20518E-04   356   0.178E-02    0.189E-02
RMM:   4    -0.355908053454E+03   -0.67703E-06   -0.11032E-05   320   0.511E-03    0.435E-03
RMM:   5    -0.355908053145E+03    0.30910E-06   -0.11920E-06   193   0.177E-03
   66 T=   507. E= -.35481258E+03 F= -.35590805E+03 E0= -.35590402E+03  EK= 0.41305E+01 SP= -.57E+01 SK= 0.27E+01
       N       E                     dE             d eps       ncg     rms          rms(c)
RMM:   1    -0.355760388027E+03    0.14767E+00   -0.32189E-02   323   0.256E-01    0.749E-02
RMM:   2    -0.355760584985E+03   -0.19696E-03   -0.22335E-03   331   0.557E-02    0.467E-02
RMM:   3    -0.355760586964E+03   -0.19783E-05   -0.17677E-04   353   0.167E-02    0.182E-02
RMM:   4    -0.355760586870E+03    0.93729E-07   -0.10060E-05   313   0.481E-03    0.432E-03
RMM:   5    -0.355760586422E+03    0.44808E-06   -0.12509E-06   193   0.177E-03
   67 T=   431. E= -.35480590E+03 F= -.35576059E+03 E0= -.35575479E+03  EK= 0.35110E+01 SP= -.51E+01 SK= 0.26E+01
       N       E                     dE             d eps       ncg     rms          rms(c)
RMM:   1    -0.355666975598E+03    0.93611E-01   -0.25426E-02   322   0.243E-01    0.705E-02
RMM:   2    -0.355667103967E+03   -0.12837E-03   -0.16152E-03   328   0.485E-02    0.451E-02
RMM:   3    -0.355667102771E+03    0.11963E-05   -0.15509E-04   352   0.156E-02    0.167E-02
RMM:   4    -0.355667103040E+03   -0.26874E-06   -0.90258E-06   298   0.434E-03
   68 T=   372. E= -.35480096E+03 F= -.35566710E+03 E0= -.35565949E+03  EK= 0.30266E+01 SP= -.45E+01 SK= 0.24E+01
       N       E                     dE             d eps       ncg     rms          rms(c)
RMM:   1    -0.355673487450E+03   -0.63847E-02   -0.23801E-02   322   0.229E-01    0.632E-02
RMM:   2    -0.355673618369E+03   -0.13092E-03   -0.16441E-03   327   0.467E-02    0.390E-02
RMM:   3    -0.355673617763E+03    0.60629E-06   -0.14865E-04   355   0.150E-02    0.154E-02
RMM:   4    -0.355673617677E+03    0.85827E-07   -0.77779E-06   285   0.413E-03
   69 T=   332. E= -.35479821E+03 F= -.35567362E+03 E0= -.35566479E+03  EK= 0.27049E+01 SP= -.40E+01 SK= 0.21E+01
       N       E                     dE             d eps       ncg     rms          rms(c)
RMM:   1    -0.355794841639E+03   -0.12122E+00   -0.21448E-02   322   0.202E-01    0.543E-02
RMM:   2    -0.355794996104E+03   -0.15447E-03   -0.17920E-03   331   0.459E-02    0.326E-02
RMM:   3    -0.355794998991E+03   -0.28873E-05   -0.13578E-04   354   0.138E-02    0.142E-02
RMM:   4    -0.355794999046E+03   -0.54963E-07   -0.68402E-06   277   0.403E-03
   70 T=   312. E= -.35479779E+03 F= -.35579500E+03 E0= -.35578633E+03  EK= 0.25401E+01 SP= -.34E+01 SK= 0.19E+01
       N       E                     dE             d eps       ncg     rms          rms(c)
RMM:   1    -0.356004966046E+03   -0.20997E+00   -0.22444E-02   325   0.181E-01    0.504E-02
RMM:   2    -0.356005138965E+03   -0.17292E-03   -0.18611E-03   330   0.462E-02    0.306E-02
RMM:   3    -0.356005146342E+03   -0.73770E-05   -0.12804E-04   356   0.133E-02    0.132E-02
RMM:   4    -0.356005146924E+03   -0.58200E-06   -0.55092E-06   255   0.375E-03
   71 T=   306. E= -.35479997E+03 F= -.35600515E+03 E0= -.35599805E+03  EK= 0.24897E+01 SP= -.29E+01 SK= 0.17E+01
       N       E                     dE             d eps       ncg     rms          rms(c)
RMM:   1    -0.356245798976E+03   -0.24065E+00   -0.24149E-02   327   0.177E-01    0.515E-02
RMM:   2    -0.356245958346E+03   -0.15937E-03   -0.17588E-03   332   0.451E-02    0.310E-02
RMM:   3    -0.356245966514E+03   -0.81679E-05   -0.12835E-04   355   0.131E-02    0.126E-02
RMM:   4    -0.356245967549E+03   -0.10353E-05   -0.54750E-06   252   0.371E-03    0.277E-03
RMM:   5    -0.356245967752E+03   -0.20305E-06   -0.71077E-07   193   0.148E-03
   72 T=   305. E= -.35480365E+03 F= -.35624597E+03 E0= -.35624115E+03  EK= 0.24874E+01 SP= -.25E+01 SK= 0.14E+01
       N       E                     dE             d eps       ncg     rms          rms(c)
RMM:   1    -0.356454029334E+03   -0.20806E+00   -0.18927E-02   322   0.173E-01    0.484E-02
RMM:   2    -0.356454180883E+03   -0.15155E-03   -0.17051E-03   327   0.430E-02    0.281E-02
RMM:   3    -0.356454186903E+03   -0.60200E-05   -0.12409E-04   358   0.129E-02    0.118E-02
RMM:   4    -0.356454187839E+03   -0.93540E-06   -0.54245E-06   253   0.370E-03
   73 T=   304. E= -.35480554E+03 F= -.35645419E+03 E0= -.35645140E+03  EK= 0.24721E+01 SP= -.20E+01 SK= 0.12E+01
       N       E                     dE             d eps       ncg     rms          rms(c)
RMM:   1    -0.356594190152E+03   -0.14000E+00   -0.14923E-02   323   0.169E-01    0.497E-02
RMM:   2    -0.356594283790E+03   -0.93638E-04   -0.10800E-03   328   0.377E-02    0.301E-02
RMM:   3    -0.356594286248E+03   -0.24576E-05   -0.84332E-05   354   0.113E-02    0.123E-02
RMM:   4    -0.356594286934E+03   -0.68600E-06   -0.45821E-06   240   0.342E-03
   74 T=   296. E= -.35480481E+03 F= -.35659429E+03 E0= -.35659272E+03  EK= 0.24118E+01 SP= -.16E+01 SK= 0.10E+01
       N       E                     dE             d eps       ncg     rms          rms(c)
RMM:   1    -0.356658006649E+03   -0.63720E-01   -0.12065E-02   323   0.158E-01    0.505E-02
RMM:   2    -0.356658084669E+03   -0.78020E-04   -0.86955E-04   328   0.337E-02    0.309E-02
RMM:   3    -0.356658086556E+03   -0.18871E-05   -0.67812E-05   355   0.103E-02    0.114E-02
RMM:   4    -0.356658087004E+03   -0.44784E-06   -0.31008E-06   215   0.292E-03
   75 T=   283. E= -.35480218E+03 F= -.35665809E+03 E0= -.35665687E+03  EK= 0.23014E+01 SP= -.13E+01 SK= 0.84E+00
       N       E                     dE             d eps       ncg     rms          rms(c)
RMM:   1    -0.356668208144E+03   -0.10122E-01   -0.10443E-02   323   0.147E-01    0.414E-02
RMM:   2    -0.356668271107E+03   -0.62962E-04   -0.70852E-04   330   0.316E-02    0.260E-02
RMM:   3    -0.356668272081E+03   -0.97428E-06   -0.55411E-05   352   0.939E-03    0.108E-02
RMM:   4    -0.356668272095E+03   -0.14170E-07   -0.30160E-06   209   0.284E-03
   76 T=   266. E= -.35479809E+03 F= -.35666827E+03 E0= -.35666655E+03  EK= 0.21656E+01 SP= -.96E+00 SK= 0.66E+00
       N       E                     dE             d eps       ncg     rms          rms(c)
RMM:   1    -0.356672572299E+03   -0.43002E-02   -0.97716E-03   323   0.139E-01    0.438E-02
RMM:   2    -0.356672631592E+03   -0.59293E-04   -0.68194E-04   329   0.314E-02    0.259E-02
RMM:   3    -0.356672631796E+03   -0.20415E-06   -0.54908E-05   354   0.939E-03    0.970E-03
RMM:   4    -0.356672631291E+03    0.50515E-06   -0.25540E-06   210   0.271E-03
   77 T=   251. E= -.35479619E+03 F= -.35667263E+03 E0= -.35666948E+03  EK= 0.20478E+01 SP= -.67E+00 SK= 0.50E+00
       N       E                     dE             d eps       ncg     rms          rms(c)
RMM:   1    -0.356711694341E+03   -0.39063E-01   -0.99466E-03   323   0.137E-01    0.427E-02
RMM:   2    -0.356711757012E+03   -0.62671E-04   -0.71661E-04   330   0.313E-02    0.255E-02
RMM:   3    -0.356711757240E+03   -0.22853E-06   -0.56275E-05   351   0.945E-03    0.937E-03
RMM:   4    -0.356711756934E+03    0.30608E-06   -0.29095E-06   211   0.275E-03
   78 T=   244. E= -.35479437E+03 F= -.35671176E+03 E0= -.35670652E+03  EK= 0.19870E+01 SP= -.43E+00 SK= 0.36E+00
       N       E                     dE             d eps       ncg     rms          rms(c)
RMM:   1    -0.356815305460E+03   -0.10355E+00   -0.99648E-03   323   0.137E-01    0.412E-02
RMM:   2    -0.356815367651E+03   -0.62191E-04   -0.71804E-04   329   0.312E-02    0.256E-02
RMM:   3    -0.356815367795E+03   -0.14383E-06   -0.57357E-05   351   0.953E-03    0.938E-03
RMM:   4    -0.356815367545E+03    0.24953E-06   -0.28439E-06   212   0.276E-03
   79 T=   247. E= -.35479400E+03 F= -.35681537E+03 E0= -.35680815E+03  EK= 0.20074E+01 SP= -.22E+00 SK= 0.24E+00
       N       E                     dE             d eps       ncg     rms          rms(c)
RMM:   1    -0.356991154240E+03   -0.17579E+00   -0.10375E-02   324   0.142E-01    0.390E-02
RMM:   2    -0.356991220735E+03   -0.66494E-04   -0.76157E-04   331   0.318E-02    0.250E-02
RMM:   3    -0.356991221189E+03   -0.45427E-06   -0.59558E-05   352   0.961E-03    0.101E-02
RMM:   4    -0.356991221118E+03    0.70566E-07   -0.29896E-06   212   0.282E-03
   80 T=   259. E= -.35479554E+03 F= -.35699122E+03 E0= -.35698293E+03  EK= 0.21129E+01 SP= -.62E-01 SK= 0.14E+00
       N       E                     dE             d eps       ncg     rms          rms(c)
RMM:   1    -0.357224082008E+03   -0.23286E+00   -0.11601E-02   323   0.148E-01    0.428E-02
RMM:   2    -0.357224163996E+03   -0.81988E-04   -0.89698E-04   327   0.333E-02    0.264E-02
RMM:   3    -0.357224166082E+03   -0.20858E-05   -0.66892E-05   356   0.101E-02    0.106E-02
RMM:   4    -0.357224166377E+03   -0.29499E-06   -0.30033E-06   211   0.286E-03
   81 T=   281. E= -.35479691E+03 F= -.35722417E+03 E0= -.35721603E+03  EK= 0.22887E+01 SP= 0.62E-01 SK= 0.77E-01
       N       E                     dE             d eps       ncg     rms          rms(c)
RMM:   1    -0.357485968589E+03   -0.26180E+00   -0.14346E-02   322   0.158E-01    0.411E-02
RMM:   2    -0.357486079318E+03   -0.11073E-03   -0.11875E-03   328   0.376E-02    0.257E-02
RMM:   3    -0.357486082861E+03   -0.35430E-05   -0.82695E-05   358   0.109E-02    0.117E-02
RMM:   4    -0.357486083249E+03   -0.38841E-06   -0.39274E-06   233   0.322E-03
   82 T=   308. E= -.35479997E+03 F= -.35748608E+03 E0= -.35747915E+03  EK= 0.25049E+01 SP= 0.15E+00 SK= 0.33E-01
       N       E                     dE             d eps       ncg     rms          rms(c)
RMM:   1    -0.357742703702E+03   -0.25662E+00   -0.16543E-02   323   0.164E-01    0.448E-02
RMM:   2    -0.357742839065E+03   -0.13536E-03   -0.14357E-03   329   0.412E-02    0.265E-02
RMM:   3    -0.357742844416E+03   -0.53519E-05   -0.98652E-05   357   0.118E-02    0.120E-02
RMM:   4    -0.357742844903E+03   -0.48626E-06   -0.39611E-06   236   0.331E-03
   83 T=   335. E= -.35480195E+03 F= -.35774284E+03 E0= -.35773764E+03  EK= 0.27314E+01 SP= 0.20E+00 SK= 0.93E-02
       N       E                     dE             d eps       ncg     rms          rms(c)
RMM:   1    -0.357959956701E+03   -0.21711E+00   -0.21299E-02   325   0.172E-01    0.469E-02
RMM:   2    -0.357960121852E+03   -0.16515E-03   -0.17311E-03   330   0.450E-02    0.280E-02
RMM:   3    -0.357960130100E+03   -0.82472E-05   -0.12094E-04   357   0.128E-02    0.125E-02
RMM:   4    -0.357960130646E+03   -0.54627E-06   -0.43983E-06   238   0.351E-03
   84 T=   360. E= -.35480428E+03 F= -.35796013E+03 E0= -.35795660E+03  EK= 0.29337E+01 SP= 0.22E+00 SK= 0.35E-03
       N       E                     dE             d eps       ncg     rms          rms(c)
RMM:   1    -0.358102822200E+03   -0.14269E+00   -0.20147E-02   325   0.169E-01    0.507E-02
RMM:   2    -0.358102975599E+03   -0.15340E-03   -0.16196E-03   328   0.431E-02    0.310E-02
RMM:   3    -0.358102983408E+03   -0.78083E-05   -0.11284E-04   355   0.124E-02    0.125E-02
RMM:   4    -0.358102984152E+03   -0.74479E-06   -0.40119E-06   234   0.335E-03
   85 T=   378. E= -.35480637E+03 F= -.35810298E+03 E0= -.35810064E+03  EK= 0.30784E+01 SP= 0.22E+00 SK= 0.27E-02
       N       E                     dE             d eps       ncg     rms          rms(c)
RMM:   1    -0.358152485134E+03   -0.49502E-01   -0.20544E-02   322   0.174E-01    0.512E-02
RMM:   2    -0.358152649214E+03   -0.16408E-03   -0.17266E-03   329   0.450E-02    0.312E-02
RMM:   3    -0.358152655764E+03   -0.65506E-05   -0.11181E-04   355   0.127E-02    0.127E-02
RMM:   4    -0.358152656345E+03   -0.58059E-06   -0.47062E-06   242   0.352E-03
   86 T=   387. E= -.35480692E+03 F= -.35815266E+03 E0= -.35815094E+03  EK= 0.31481E+01 SP= 0.18E+00 SK= 0.14E-01
       N       E                     dE             d eps       ncg     rms          rms(c)
RMM:   1    -0.358108993966E+03    0.43662E-01   -0.20557E-02   324   0.177E-01    0.599E-02
RMM:   2    -0.358109129560E+03   -0.13559E-03   -0.14401E-03   330   0.444E-02    0.376E-02
RMM:   3    -0.358109134720E+03   -0.51602E-05   -0.10754E-04   350   0.130E-02    0.120E-02
RMM:   4    -0.358109135189E+03   -0.46833E-06   -0.51306E-06   245   0.354E-03
   87 T=   386. E= -.35480460E+03 F= -.35810914E+03 E0= -.35810770E+03  EK= 0.31438E+01 SP= 0.13E+00 SK= 0.34E-01
       N       E                     dE             d eps       ncg     rms          rms(c)
RMM:   1    -0.357996835944E+03    0.11230E+00   -0.25949E-02   323   0.195E-01    0.528E-02
RMM:   2    -0.357997007441E+03   -0.17150E-03   -0.18451E-03   327   0.503E-02    0.321E-02
RMM:   3    -0.357997012474E+03   -0.50329E-05   -0.13492E-04   355   0.146E-02    0.128E-02
RMM:   4    -0.357997012575E+03   -0.10067E-06   -0.69645E-06   268   0.411E-03
   88 T=   379. E= -.35480338E+03 F= -.35799701E+03 E0= -.35799572E+03  EK= 0.30854E+01 SP= 0.45E-01 SK= 0.63E-01
       N       E                     dE             d eps       ncg     rms          rms(c)
RMM:   1    -0.357849136694E+03    0.14788E+00   -0.23927E-02   322   0.192E-01    0.533E-02
RMM:   2    -0.357849308143E+03   -0.17145E-03   -0.18262E-03   328   0.491E-02    0.329E-02
RMM:   3    -0.357849314439E+03   -0.62958E-05   -0.13041E-04   355   0.140E-02    0.137E-02
RMM:   4    -0.357849314479E+03   -0.39872E-07   -0.64697E-06   265   0.399E-03
   89 T=   369. E= -.35480280E+03 F= -.35784931E+03 E0= -.35784800E+03  EK= 0.30055E+01 SP= -.62E-01 SK= 0.10E+00
       N       E                     dE             d eps       ncg     rms          rms(c)
RMM:   1    -0.357703644602E+03    0.14567E+00   -0.18426E-02   323   0.183E-01    0.560E-02
RMM:   2    -0.357703754630E+03   -0.11003E-03   -0.12080E-03   329   0.427E-02    0.350E-02
RMM:   3    -0.357703756408E+03   -0.17776E-05   -0.95371E-05   351   0.125E-02    0.139E-02
RMM:   4    -0.357703756380E+03    0.28100E-07   -0.59198E-06   264   0.377E-03
   90 T=   361. E= -.35480167E+03 F= -.35770376E+03 E0= -.35770219E+03  EK= 0.29430E+01 SP= -.20E+00 SK= 0.15E+00
       N       E                     dE             d eps       ncg     rms          rms(c)
RMM:   1    -0.357594599486E+03    0.10916E+00   -0.16745E-02   322   0.178E-01    0.489E-02
RMM:   2    -0.357594697764E+03   -0.98277E-04   -0.10896E-03   333   0.405E-02    0.315E-02
RMM:   3    -0.357594698379E+03   -0.61468E-06   -0.83944E-05   353   0.117E-02    0.141E-02
RMM:   4    -0.357594697953E+03    0.42548E-06   -0.58467E-06   262   0.368E-03
   91 T=   360. E= -.35479943E+03 F= -.35759470E+03 E0= -.35759265E+03  EK= 0.29335E+01 SP= -.36E+00 SK= 0.22E+00
       N       E                     dE             d eps       ncg     rms          rms(c)
RMM:   1    -0.357537884797E+03    0.56814E-01   -0.12669E-02   322   0.170E-01    0.542E-02
RMM:   2    -0.357537951023E+03   -0.66226E-04   -0.77351E-04   331   0.350E-02    0.340E-02
RMM:   3    -0.357537949701E+03    0.13216E-05   -0.68967E-05   346   0.107E-02    0.125E-02
RMM:   4    -0.357537949736E+03   -0.34426E-07   -0.46477E-06   234   0.315E-03
   92 T=   367. E= -.35479918E+03 F= -.35753795E+03 E0= -.35753518E+03  EK= 0.29921E+01 SP= -.55E+00 SK= 0.29E+00
       N       E                     dE             d eps       ncg     rms          rms(c)
RMM:   1    -0.357525193547E+03    0.12756E-01   -0.13478E-02   322   0.176E-01    0.522E-02
RMM:   2    -0.357525271628E+03   -0.78081E-04   -0.90930E-04   329   0.360E-02    0.336E-02
RMM:   3    -0.357525270520E+03    0.11080E-05   -0.78942E-05   346   0.112E-02    0.128E-02
RMM:   4    -0.357525270947E+03   -0.42612E-06   -0.53738E-06   239   0.330E-03
   93 T=   382. E= -.35480204E+03 F= -.35752527E+03 E0= -.35752159E+03  EK= 0.31121E+01 SP= -.76E+00 SK= 0.37E+00
       N       E                     dE             d eps       ncg     rms          rms(c)
RMM:   1    -0.357537223547E+03   -0.11953E-01   -0.15819E-02   322   0.186E-01    0.569E-02
RMM:   2    -0.357537329525E+03   -0.10598E-03   -0.11938E-03   327   0.397E-02    0.358E-02
RMM:   3    -0.357537330463E+03   -0.93821E-06   -0.97546E-05   349   0.121E-02    0.140E-02
RMM:   4    -0.357537330873E+03   -0.41000E-06   -0.59138E-06   253   0.356E-03
   94 T=   402. E= -.35480718E+03 F= -.35753733E+03 E0= -.35753272E+03  EK= 0.32775E+01 SP= -.10E+01 SK= 0.45E+00
       N       E                     dE             d eps       ncg     rms          rms(c)
RMM:   1    -0.357537547960E+03   -0.21750E-03   -0.18680E-02   323   0.192E-01    0.592E-02
RMM:   2    -0.357537687132E+03   -0.13917E-03   -0.15132E-03   329   0.433E-02    0.356E-02
RMM:   3    -0.357537691792E+03   -0.46598E-05   -0.11123E-04   356   0.126E-02    0.149E-02
RMM:   4    -0.357537692402E+03   -0.61043E-06   -0.51126E-06   250   0.361E-03
   95 T=   425. E= -.35480983E+03 F= -.35753769E+03 E0= -.35753237E+03  EK= 0.34585E+01 SP= -.13E+01 SK= 0.53E+00
       N       E                     dE             d eps       ncg     rms          rms(c)
RMM:   1    -0.357488627233E+03    0.49065E-01   -0.22852E-02   323   0.199E-01    0.585E-02
RMM:   2    -0.357488806363E+03   -0.17913E-03   -0.19177E-03   329   0.469E-02    0.359E-02
RMM:   3    -0.357488814030E+03   -0.76668E-05   -0.13294E-04   358   0.136E-02    0.157E-02
RMM:   4    -0.357488814642E+03   -0.61219E-06   -0.56022E-06   257   0.381E-03
   96 T=   444. E= -.35481278E+03 F= -.35748881E+03 E0= -.35748307E+03  EK= 0.36141E+01 SP= -.15E+01 SK= 0.61E+00
       N       E                     dE             d eps       ncg     rms          rms(c)
RMM:   1    -0.357358864426E+03    0.12995E+00   -0.27964E-02   322   0.209E-01    0.607E-02
RMM:   2    -0.357359113062E+03   -0.24864E-03   -0.26164E-03   327   0.531E-02    0.369E-02
RMM:   3    -0.357359125682E+03   -0.12620E-04   -0.18634E-04   357   0.152E-02    0.167E-02
RMM:   4    -0.357359126493E+03   -0.81127E-06   -0.76836E-06   280   0.431E-03
   97 T=   456. E= -.35481456E+03 F= -.35735913E+03 E0= -.35735285E+03  EK= 0.37114E+01 SP= -.19E+01 SK= 0.68E+00
       N       E                     dE             d eps       ncg     rms          rms(c)
RMM:   1    -0.357133392549E+03    0.22573E+00   -0.23587E-02   322   0.209E-01    0.592E-02
RMM:   2    -0.357133570444E+03   -0.17790E-03   -0.19189E-03   326   0.491E-02    0.368E-02
RMM:   3    -0.357133577587E+03   -0.71434E-05   -0.15440E-04   358   0.144E-02    0.161E-02
RMM:   4    -0.357133578301E+03   -0.71359E-06   -0.75363E-06   287   0.419E-03
   98 T=   458. E= -.35481242E+03 F= -.35713358E+03 E0= -.35712598E+03  EK= 0.37333E+01 SP= -.22E+01 SK= 0.76E+00
       N       E                     dE             d eps       ncg     rms          rms(c)
RMM:   1    -0.356832036149E+03    0.30154E+00   -0.26628E-02   322   0.216E-01    0.626E-02
RMM:   2    -0.356832246251E+03   -0.21010E-03   -0.22792E-03   323   0.520E-02    0.385E-02
RMM:   3    -0.356832253030E+03   -0.67800E-05   -0.18563E-04   356   0.157E-02    0.149E-02
RMM:   4    -0.356832253360E+03   -0.32989E-06   -0.84545E-06   289   0.435E-03
   99 T=   453. E= -.35480960E+03 F= -.35683225E+03 E0= -.35682242E+03  EK= 0.36915E+01 SP= -.25E+01 SK= 0.83E+00
       N       E                     dE             d eps       ncg     rms          rms(c)
RMM:   1    -0.356500234808E+03    0.33202E+00   -0.19236E-02   322   0.209E-01    0.703E-02
RMM:   2    -0.356500339905E+03   -0.10510E-03   -0.12680E-03   331   0.432E-02    0.458E-02
RMM:   3    -0.356500336904E+03    0.30012E-05   -0.12184E-04   345   0.140E-02    0.138E-02
RMM:   4    -0.356500337010E+03   -0.10585E-06   -0.72485E-06   261   0.381E-03
  100 T=   445. E= -.35480950E+03 F= -.35650034E+03 E0= -.35648834E+03  EK= 0.36248E+01 SP= -.29E+01 SK= 0.92E+00
