 vasp.5.4.4.18Apr17-6-g9f103f2a35 (build Sep 15 2021 12:59:37) complex           
 executed on             LinuxGNU date 2022.10.04  11:18:34
 running on   16 total cores
 distrk:  each k-point on    4 cores,    4 groups
 distr:  one band on NCORES_PER_BAND=   4 cores,    1 groups


--------------------------------------------------------------------------------------------------------


 INCAR:
 POTCAR:    PAW_PBE Si 05Jan2001                  

 ----------------------------------------------------------------------------- 
|                                                                             |
|           W    W    AA    RRRRR   N    N  II  N    N   GGGG   !!!           |
|           W    W   A  A   R    R  NN   N  II  NN   N  G    G  !!!           |
|           W    W  A    A  R    R  N N  N  II  N N  N  G       !!!           |
|           W WW W  AAAAAA  RRRRR   N  N N  II  N  N N  G  GGG   !            |
|           WW  WW  A    A  R   R   N   NN  II  N   NN  G    G                |
|           W    W  A    A  R    R  N    N  II  N    N   GGGG   !!!           |
|                                                                             |
|      You have enabled k-point parallelism (KPAR>1).                         |
|      This developmental code was originally  written by Paul Kent at ORNL,  |
|      and carefully double checked in Vienna.                                |
|      GW as well as linear response parallelism added by Martijn Marsman     |
|      and Georg Kresse.                                                      |
|      Carefully verify results versus KPAR=1.                                |
|      Report problems to Paul Kent and Vienna.                               |
|                                                                             |
 ----------------------------------------------------------------------------- 

 POTCAR:    PAW_PBE Si 05Jan2001                  
   VRHFIN =Si: s2p2                                                             
   LEXCH  = PE                                                                  
   EATOM  =   103.0669 eV,    7.5752 Ry                                         
                                                                                
   TITEL  = PAW_PBE Si 05Jan2001                                                
   LULTRA =        F    use ultrasoft PP ?                                      
   IUNSCR =        1    unscreen: 0-lin 1-nonlin 2-no                           
   RPACOR =    1.500    partial core radius                                     
   POMASS =   28.085; ZVAL   =    4.000    mass and valenz                      
   RCORE  =    1.900    outmost cutoff radius                                   
   RWIGS  =    2.480; RWIGS  =    1.312    wigner-seitz radius (au A)           
   ENMAX  =  245.345; ENMIN  =  184.009 eV                                      
   ICORE  =        2    local potential                                         
   LCOR   =        T    correct aug charges                                     
   LPAW   =        T    paw PP                                                  
   EAUG   =  322.069                                                            
   DEXC   =    0.000                                                            
   RMAX   =    1.950    core radius for proj-oper                               
   RAUG   =    1.300    factor for augmentation sphere                          
   RDEP   =    1.993    radius for radial grids                                 
   RDEPT  =    1.837    core radius for aug-charge                              
                                                                                
   Atomic configuration                                                         
    6 entries                                                                   
     n  l   j            E        occ.                                          
     1  0  0.50     -1785.8828   2.0000                                         
     2  0  0.50      -139.4969   2.0000                                         
     2  1  1.50       -95.5546   6.0000                                         
     3  0  0.50       -10.8127   2.0000                                         
     3  1  0.50        -4.0811   2.0000                                         
     3  2  1.50        -4.0817   0.0000                                         
   Description                                                                  
     l       E           TYP  RCUT    TYP  RCUT                                 
     0    -10.8127223     23  1.900                                             
     0     -7.6451159     23  1.900                                             
     1     -4.0811372     23  1.900                                             
     1      2.4879257     23  1.900                                             
     2     -4.0817478      7  1.900                                             
  local pseudopotential read in
  partial core-charges read in
  partial kinetic energy density read in
  atomic valenz-charges read in
  non local Contribution for L=           0  read in
    real space projection operators read in
  non local Contribution for L=           0  read in
    real space projection operators read in
  non local Contribution for L=           1  read in
    real space projection operators read in
  non local Contribution for L=           1  read in
    real space projection operators read in
    PAW grid and wavefunctions read in

   number of l-projection  operators is LMAX  =           4
   number of lm-projection operators is LMMAX =           8

 Optimization of the real space projectors (new method)

 maximal supplied QI-value         = 19.84
 optimisation between [QCUT,QGAM] = [  7.94, 16.07] = [ 17.64, 72.34] Ry 
 Optimized for a Real-space Cutoff    1.22 Angstroem

   l    n(q)    QCUT    max X(q) W(low)/X(q) W(high)/X(q)  e(spline) 
   0      6     7.937   159.560    0.56E-03    0.15E-02    0.73E-07
   0      6     7.937   115.863    0.56E-03    0.15E-02    0.72E-07
   1      5     7.937    88.339    0.41E-02    0.34E-02    0.59E-07
   1      5     7.937    48.592    0.40E-02    0.33E-02    0.57E-07

 ----------------------------------------------------------------------------- 
|                                                                             |
|  ADVICE TO THIS USER RUNNING 'VASP/VAMP'   (HEAR YOUR MASTER'S VOICE ...):  |
|                                                                             |
|      You enforced a specific xc-type in the INCAR file,                     |
|      a different type was found on the POTCAR file                          |
|          I HOPE YOU KNOW, WHAT YOU ARE  DOING                               |
|                                                                             |
 ----------------------------------------------------------------------------- 

  PAW_PBE Si 05Jan2001                  :
 energy of atom  1       EATOM= -103.0669
 kinetic energy error for atom=    0.0052 (will be added to EATOM!!)


 POSCAR: Si cubic diamond 2x2x2 super cell of con
  positions in direct lattice
  No initial velocities read in
 exchange correlation table for  LEXCH =       14
   RHO(1)=    0.500       N(1)  =     2000
   RHO(2)=  100.500       N(2)  =     4000



--------------------------------------------------------------------------------------------------------


 ion  position               nearest neighbor table
   1  0.000  0.000  0.000-  14 2.35  28 2.35  41 2.35  63 2.35
   2  0.500  0.000  0.000-  13 2.35  27 2.35  42 2.35  64 2.35
   3  0.000  0.500  0.000-  16 2.35  26 2.35  43 2.35  61 2.35
   4  0.500  0.500  0.000-  15 2.35  25 2.35  44 2.35  62 2.35
   5  0.000  0.000  0.500-  10 2.35  32 2.35  45 2.35  59 2.35
   6  0.500  0.000  0.500-   9 2.35  31 2.35  46 2.35  60 2.35
   7  0.000  0.500  0.500-  12 2.35  30 2.35  47 2.35  57 2.35
   8  0.500  0.500  0.500-  11 2.35  29 2.35  48 2.35  58 2.35
   9  0.375  0.125  0.375-   6 2.35  18 2.35  33 2.35  53 2.35
  10  0.875  0.125  0.375-   5 2.35  17 2.35  34 2.35  54 2.35
  11  0.375  0.625  0.375-   8 2.35  20 2.35  35 2.35  55 2.35
  12  0.875  0.625  0.375-   7 2.35  19 2.35  36 2.35  56 2.35
  13  0.375  0.125  0.875-   2 2.35  22 2.35  37 2.35  49 2.35
  14  0.875  0.125  0.875-   1 2.35  21 2.35  38 2.35  50 2.35
  15  0.375  0.625  0.875-   4 2.35  24 2.35  39 2.35  51 2.35
  16  0.875  0.625  0.875-   3 2.35  23 2.35  40 2.35  52 2.35
  17  0.000  0.250  0.250-  10 2.35  26 2.35  41 2.35  57 2.35
  18  0.500  0.250  0.250-   9 2.35  25 2.35  42 2.35  58 2.35
  19  0.000  0.750  0.250-  12 2.35  28 2.35  43 2.35  59 2.35
  20  0.500  0.750  0.250-  11 2.35  27 2.35  44 2.35  60 2.35
  21  0.000  0.250  0.750-  14 2.35  30 2.35  45 2.35  61 2.35
  22  0.500  0.250  0.750-  13 2.35  29 2.35  46 2.35  62 2.35
  23  0.000  0.750  0.750-  16 2.35  32 2.35  47 2.35  63 2.35
  24  0.500  0.750  0.750-  15 2.35  31 2.35  48 2.35  64 2.35
  25  0.375  0.375  0.125-   4 2.35  18 2.35  35 2.35  49 2.35
  26  0.875  0.375  0.125-   3 2.35  17 2.35  36 2.35  50 2.35
  27  0.375  0.875  0.125-   2 2.35  20 2.35  33 2.35  51 2.35
  28  0.875  0.875  0.125-   1 2.35  19 2.35  34 2.35  52 2.35
  29  0.375  0.375  0.625-   8 2.35  22 2.35  39 2.35  53 2.35
  30  0.875  0.375  0.625-   7 2.35  21 2.35  40 2.35  54 2.35
  31  0.375  0.875  0.625-   6 2.35  24 2.35  37 2.35  55 2.35
  32  0.875  0.875  0.625-   5 2.35  23 2.35  38 2.35  56 2.35
  33  0.250  0.000  0.250-   9 2.35  27 2.35  41 2.35  59 2.35
  34  0.750  0.000  0.250-  10 2.35  28 2.35  42 2.35  60 2.35
  35  0.250  0.500  0.250-  11 2.35  25 2.35  43 2.35  57 2.35
  36  0.750  0.500  0.250-  12 2.35  26 2.35  44 2.35  58 2.35
  37  0.250  0.000  0.750-  13 2.35  31 2.35  45 2.35  63 2.35
  38  0.750  0.000  0.750-  14 2.35  32 2.35  46 2.35  64 2.35
  39  0.250  0.500  0.750-  15 2.35  29 2.35  47 2.35  61 2.35
  40  0.750  0.500  0.750-  16 2.35  30 2.35  48 2.35  62 2.35
  41  0.125  0.125  0.125-   1 2.35  17 2.35  33 2.35  49 2.35
  42  0.625  0.125  0.125-   2 2.35  18 2.35  34 2.35  50 2.35
  43  0.125  0.625  0.125-   3 2.35  19 2.35  35 2.35  51 2.35
  44  0.625  0.625  0.125-   4 2.35  20 2.35  36 2.35  52 2.35
  45  0.125  0.125  0.625-   5 2.35  21 2.35  37 2.35  53 2.35
  46  0.625  0.125  0.625-   6 2.35  22 2.35  38 2.35  54 2.35
  47  0.125  0.625  0.625-   7 2.35  23 2.35  39 2.35  55 2.35
  48  0.625  0.625  0.625-   8 2.35  24 2.35  40 2.35  56 2.35
  49  0.250  0.250  0.000-  13 2.35  25 2.35  41 2.35  61 2.35
  50  0.750  0.250  0.000-  14 2.35  26 2.35  42 2.35  62 2.35
  51  0.250  0.750  0.000-  15 2.35  27 2.35  43 2.35  63 2.35
  52  0.750  0.750  0.000-  16 2.35  28 2.35  44 2.35  64 2.35
  53  0.250  0.250  0.500-   9 2.35  29 2.35  45 2.35  57 2.35
  54  0.750  0.250  0.500-  10 2.35  30 2.35  46 2.35  58 2.35
  55  0.250  0.750  0.500-  11 2.35  31 2.35  47 2.35  59 2.35
  56  0.750  0.750  0.500-  12 2.35  32 2.35  48 2.35  60 2.35
  57  0.125  0.375  0.375-   7 2.35  17 2.35  35 2.35  53 2.35
  58  0.625  0.375  0.375-   8 2.35  18 2.35  36 2.35  54 2.35
  59  0.125  0.875  0.375-   5 2.35  19 2.35  33 2.35  55 2.35
  60  0.625  0.875  0.375-   6 2.35  20 2.35  34 2.35  56 2.35
  61  0.125  0.375  0.875-   3 2.35  21 2.35  39 2.35  49 2.35
  62  0.625  0.375  0.875-   4 2.35  22 2.35  40 2.35  50 2.35
  63  0.125  0.875  0.875-   1 2.35  23 2.35  37 2.35  51 2.35
  64  0.625  0.875  0.875-   2 2.35  24 2.35  38 2.35  52 2.35


IMPORTANT INFORMATION: All symmetrisations will be switched off!
NOSYMM: (Re-)initialisation of all symmetry stuff for point group C_1.



 KPOINTS: K-Points                                

Automatic generation of k-mesh.
Space group operators:
 irot       det(A)        alpha          n_x          n_y          n_z        tau_x        tau_y        tau_z
    1     1.000000     0.000000     1.000000     0.000000     0.000000     0.000000     0.000000     0.000000
 
 Subroutine IBZKPT returns following result:
 ===========================================
 
 Found      1 irreducible k-points:
 
 Following reciprocal coordinates:
            Coordinates               Weight
  0.000000  0.000000  0.000000      1.000000
 
 Following cartesian coordinates:
            Coordinates               Weight
  0.000000  0.000000  0.000000      1.000000
 


--------------------------------------------------------------------------------------------------------




 Dimension of arrays:
   k-points           NKPTS =      1   k-points in BZ     NKDIM =      1   number of bands    NBANDS=    161
   number of dos      NEDOS =    301   number of ions     NIONS =     64
   non local maximal  LDIM  =      4   non local SUM 2l+1 LMDIM =      8
   total plane-waves  NPLWV =  74088
   max r-space proj   IRMAX =    494   max aug-charges    IRDMAX=    560
   dimension x,y,z NGX =    42 NGY =   42 NGZ =   42
   dimension x,y,z NGXF=    48 NGYF=   48 NGZF=   48
   support grid    NGXF=    48 NGYF=   48 NGZF=   48
   ions per type =              64
   NGX,Y,Z   is equivalent  to a cutoff of   6.43,  6.43,  6.43 a.u.
   NGXF,Y,Z  is equivalent  to a cutoff of   7.35,  7.35,  7.35 a.u.

 SYSTEM =  si_2x2x2                                
 POSCAR =  Si cubic diamond 2x2x2 super cell of con

 Startparameter for this run:
   NWRITE =      2    write-flag & timer
   PREC   = low       normal or accurate (medium, high low for compatibility)
   ISTART =      1    job   : 0-new  1-cont  2-samecut
   ICHARG =      0    charge: 1-file 2-atom 10-const
   ISPIN  =      1    spin polarized calculation?
   LNONCOLLINEAR =      F non collinear calculations
   LSORBIT =      F    spin-orbit coupling
   INIWAV =      1    electr: 0-lowe 1-rand  2-diag
   LASPH  =      F    aspherical Exc in radial PAW
   METAGGA=      F    non-selfconsistent MetaGGA calc.

 Electronic Relaxation 1
   ENCUT  =  250.0 eV  18.37 Ry    4.29 a.u.  14.00 14.00 14.00*2*pi/ulx,y,z
   ENINI  =  250.0     initial cutoff
   ENAUG  =  322.1 eV  augmentation charge cutoff
   NELM   =    150;   NELMIN=  2; NELMDL=  0     # of ELM steps 
   EDIFF  = 0.1E-05   stopping-criterion for ELM
   LREAL  =      T    real-space projection
   NLSPLINE    = F    spline interpolate recip. space projectors
   LCOMPAT=      F    compatible to vasp.4.4
   GGA_COMPAT  = T    GGA compatible to vasp.4.4-vasp.4.6
   LMAXPAW     = -100 max onsite density
   LMAXMIX     =    2 max onsite mixed and CHGCAR
   VOSKOWN=      0    Vosko Wilk Nusair interpolation
   ROPT   =   -0.01000
 Ionic relaxation
   EDIFFG = 0.1E-04   stopping-criterion for IOM
   NSW    =    100    number of steps for IOM
   NBLOCK =      1;   KBLOCK =    100    inner block; outer block 
   IBRION =      0    ionic relax: 0-MD 1-quasi-New 2-CG
   NFREE  =      0    steps in history (QN), initial steepest desc. (CG)
   ISIF   =      3    stress and relaxation
   IWAVPR =     12    prediction:  0-non 1-charg 2-wave 3-comb
   ISYM   =      0    0-nonsym 1-usesym 2-fastsym
   LCORR  =      T    Harris-Foulkes like correction to forces

   POTIM  = 3.0000    time-step for ionic-motion
   TEIN   =  600.0    initial temperature
   TEBEG  =  600.0;   TEEND  = 600.0 temperature during run
   SMASS  =   1.00    Nose mass-parameter (am)
   estimated Nose-frequenzy (Omega)   =  0.40E+14 period in steps = 52.39 mass=   0.899E-27a.u.
   SCALEE = 1.0000    scale energy and forces
   NPACO  =    256;   APACO  = 16.0  distance and # of slots for P.C.
   PSTRESS=    0.0 pullay stress

  Mass of Ions in am
   POMASS =  28.09
  Ionic Valenz
   ZVAL   =   4.00
  Atomic Wigner-Seitz radii
   RWIGS  =  -1.00
  virtual crystal weights 
   VCA    =   1.00
   NELECT =     256.0000    total number of electrons
   NUPDOWN=      -1.0000    fix difference up-down

 DOS related values:
   EMIN   =  10.00;   EMAX   =-10.00  energy-range for DOS
   EFERMI =   0.00
   ISMEAR =     0;   SIGMA  =   0.10  broadening in eV -4-tet -1-fermi 0-gaus

 Electronic relaxation 2 (details)
   IALGO  =     48    algorithm
   LDIAG  =      T    sub-space diagonalisation (order eigenvalues)
   LSUBROT=      F    optimize rotation matrix (better conditioning)
   TURBO    =      0    0=normal 1=particle mesh
   IRESTART =      0    0=no restart 2=restart with 2 vectors
   NREBOOT  =      0    no. of reboots
   NMIN     =      0    reboot dimension
   EREF     =   0.00    reference energy to select bands
   IMIX   =      4    mixing-type and parameters
     AMIX     =   0.40;   BMIX     =  1.00
     AMIX_MAG =   1.60;   BMIX_MAG =  1.00
     AMIN     =   0.10
     WC   =   100.;   INIMIX=   1;  MIXPRE=   1;  MAXMIX= -45

 Intra band minimization:
   WEIMIN = 0.0010     energy-eigenvalue tresh-hold
   EBREAK =  0.16E-08  absolut break condition
   DEPER  =   0.30     relativ break condition  

   TIME   =   0.40     timestep for ELM

  volume/ion in A,a.u.               =      20.02       135.12
  Fermi-wavevector in a.u.,A,eV,Ry     =   0.957017  1.808500 12.461327  0.915882
  Thomas-Fermi vector in A             =   2.085997

 Write flags
   LWAVE        =      T    write WAVECAR
   LDOWNSAMPLE  =      F    k-point downsampling of WAVECAR
   LCHARG       =      T    write CHGCAR
   LVTOT        =      F    write LOCPOT, total local potential
   LVHAR        =      F    write LOCPOT, Hartree potential only
   LELF         =      F    write electronic localiz. function (ELF)
   LORBIT       =      0    0 simple, 1 ext, 2 COOP (PROOUT), +10 PAW based schemes


 Dipole corrections
   LMONO  =      F    monopole corrections only (constant potential shift)
   LDIPOL =      F    correct potential (dipole corrections)
   IDIPOL =      0    1-x, 2-y, 3-z, 4-all directions 
   EPSILON=  1.0000000 bulk dielectric constant

 Exchange correlation treatment:
   GGA     =    PS    GGA type
   LEXCH   =    14    internal setting for exchange type
   VOSKOWN=      0    Vosko Wilk Nusair interpolation
   LHFCALC =     F    Hartree Fock is set to
   LHFONE  =     F    Hartree Fock one center treatment
   AEXX    =    0.0000 exact exchange contribution

 Linear response parameters
   LEPSILON=     F    determine dielectric tensor
   LRPA    =     F    only Hartree local field effects (RPA)
   LNABLA  =     F    use nabla operator in PAW spheres
   LVEL    =     F    velocity operator in full k-point grid
   LINTERFAST=   F  fast interpolation
   KINTER  =     0    interpolate to denser k-point grid
   CSHIFT  =0.1000    complex shift for real part using Kramers Kronig
   OMEGAMAX=  -1.0    maximum frequency
   DEG_THRESHOLD= 0.2000000E-02 threshold for treating states as degnerate
   RTIME   =   -0.100 relaxation time in fs
  (WPLASMAI=    0.000 imaginary part of plasma frequency in eV, 0.658/RTIME)
   DFIELD  = 0.0000000 0.0000000 0.0000000 field for delta impulse in time

 Orbital magnetization related:
   ORBITALMAG=     F  switch on orbital magnetization
   LCHIMAG   =     F  perturbation theory with respect to B field
   DQ        =  0.001000  dq finite difference perturbation B field
   LLRAUG    =     F  two centre corrections for induced B field



--------------------------------------------------------------------------------------------------------


 molecular dynamics for ions
   using nose mass (canonical ensemble)
 charge density and potential will be updated during run
 non-spin polarized calculation
 RMM-DIIS sequential band-by-band
 perform sub-space diagonalisation
    before iterative eigenvector-optimisation
 modified Broyden-mixing scheme, WC =      100.0
 initial mixing is a Kerker type mixing with AMIX =  0.4000 and BMIX =      1.0000
 Hartree-type preconditioning will be used
 using additional bands           33
 real space projection scheme for non local part
 use partial core corrections
 calculate Harris-corrections to forces   (improved forces if not selfconsistent)
 use gradient corrections 
 use of overlap-Matrix (Vanderbilt PP)
 Gauss-broadening in eV      SIGMA  =   0.10


--------------------------------------------------------------------------------------------------------


  energy-cutoff  :      250.00
  volume of cell :     1281.46
      direct lattice vectors                 reciprocal lattice vectors
    10.861800000  0.000000000  0.000000000     0.092065772  0.000000000  0.000000000
     0.000000000 10.861800000  0.000000000     0.000000000  0.092065772  0.000000000
     0.000000000  0.000000000 10.861800000     0.000000000  0.000000000  0.092065772

  length of vectors
    10.861800000 10.861800000 10.861800000     0.092065772  0.092065772  0.092065772



 old parameters found on file WAVECAR:
  energy-cutoff  :      250.00
  volume of cell :     1281.46
      direct lattice vectors                 reciprocal lattice vectors
    10.861800000  0.000000000  0.000000000     0.092065772  0.000000000  0.000000000
     0.000000000 10.861800000  0.000000000     0.000000000  0.092065772  0.000000000
     0.000000000  0.000000000 10.861800000     0.000000000  0.000000000  0.092065772

  length of vectors


 k-points in units of 2pi/SCALE and weight: K-Points                                
   0.00000000  0.00000000  0.00000000       1.000

 k-points in reciprocal lattice and weights: K-Points                                
   0.00000000  0.00000000  0.00000000       1.000

 position of ions in fractional coordinates (direct lattice) 
   0.00000000  0.00000000  0.00000000
   0.50000000  0.00000000  0.00000000
   0.00000000  0.50000000  0.00000000
   0.50000000  0.50000000  0.00000000
   0.00000000  0.00000000  0.50000000
   0.50000000  0.00000000  0.50000000
   0.00000000  0.50000000  0.50000000
   0.50000000  0.50000000  0.50000000
   0.37500000  0.12500000  0.37500000
   0.87500000  0.12500000  0.37500000
   0.37500000  0.62500000  0.37500000
   0.87500000  0.62500000  0.37500000
   0.37500000  0.12500000  0.87500000
   0.87500000  0.12500000  0.87500000
   0.37500000  0.62500000  0.87500000
   0.87500000  0.62500000  0.87500000
   0.00000000  0.25000000  0.25000000
   0.50000000  0.25000000  0.25000000
   0.00000000  0.75000000  0.25000000
   0.50000000  0.75000000  0.25000000
   0.00000000  0.25000000  0.75000000
   0.50000000  0.25000000  0.75000000
   0.00000000  0.75000000  0.75000000
   0.50000000  0.75000000  0.75000000
   0.37500000  0.37500000  0.12500000
   0.87500000  0.37500000  0.12500000
   0.37500000  0.87500000  0.12500000
   0.87500000  0.87500000  0.12500000
   0.37500000  0.37500000  0.62500000
   0.87500000  0.37500000  0.62500000
   0.37500000  0.87500000  0.62500000
   0.87500000  0.87500000  0.62500000
   0.25000000  0.00000000  0.25000000
   0.75000000  0.00000000  0.25000000
   0.25000000  0.50000000  0.25000000
   0.75000000  0.50000000  0.25000000
   0.25000000  0.00000000  0.75000000
   0.75000000  0.00000000  0.75000000
   0.25000000  0.50000000  0.75000000
   0.75000000  0.50000000  0.75000000
   0.12500000  0.12500000  0.12500000
   0.62500000  0.12500000  0.12500000
   0.12500000  0.62500000  0.12500000
   0.62500000  0.62500000  0.12500000
   0.12500000  0.12500000  0.62500000
   0.62500000  0.12500000  0.62500000
   0.12500000  0.62500000  0.62500000
   0.62500000  0.62500000  0.62500000
   0.25000000  0.25000000  0.00000000
   0.75000000  0.25000000  0.00000000
   0.25000000  0.75000000  0.00000000
   0.75000000  0.75000000  0.00000000
   0.25000000  0.25000000  0.50000000
   0.75000000  0.25000000  0.50000000
   0.25000000  0.75000000  0.50000000
   0.75000000  0.75000000  0.50000000
   0.12500000  0.37500000  0.37500000
   0.62500000  0.37500000  0.37500000
   0.12500000  0.87500000  0.37500000
   0.62500000  0.87500000  0.37500000
   0.12500000  0.37500000  0.87500000
   0.62500000  0.37500000  0.87500000
   0.12500000  0.87500000  0.87500000
   0.62500000  0.87500000  0.87500000

 position of ions in cartesian coordinates  (Angst):
   0.00000000  0.00000000  0.00000000
   5.43090000  0.00000000  0.00000000
   0.00000000  5.43090000  0.00000000
   5.43090000  5.43090000  0.00000000
   0.00000000  0.00000000  5.43090000
   5.43090000  0.00000000  5.43090000
   0.00000000  5.43090000  5.43090000
   5.43090000  5.43090000  5.43090000
   4.07317500  1.35772500  4.07317500
   9.50407500  1.35772500  4.07317500
   4.07317500  6.78862500  4.07317500
   9.50407500  6.78862500  4.07317500
   4.07317500  1.35772500  9.50407500
   9.50407500  1.35772500  9.50407500
   4.07317500  6.78862500  9.50407500
   9.50407500  6.78862500  9.50407500
   0.00000000  2.71545000  2.71545000
   5.43090000  2.71545000  2.71545000
   0.00000000  8.14635000  2.71545000
   5.43090000  8.14635000  2.71545000
   0.00000000  2.71545000  8.14635000
   5.43090000  2.71545000  8.14635000
   0.00000000  8.14635000  8.14635000
   5.43090000  8.14635000  8.14635000
   4.07317500  4.07317500  1.35772500
   9.50407500  4.07317500  1.35772500
   4.07317500  9.50407500  1.35772500
   9.50407500  9.50407500  1.35772500
   4.07317500  4.07317500  6.78862500
   9.50407500  4.07317500  6.78862500
   4.07317500  9.50407500  6.78862500
   9.50407500  9.50407500  6.78862500
   2.71545000  0.00000000  2.71545000
   8.14635000  0.00000000  2.71545000
   2.71545000  5.43090000  2.71545000
   8.14635000  5.43090000  2.71545000
   2.71545000  0.00000000  8.14635000
   8.14635000  0.00000000  8.14635000
   2.71545000  5.43090000  8.14635000
   8.14635000  5.43090000  8.14635000
   1.35772500  1.35772500  1.35772500
   6.78862500  1.35772500  1.35772500
   1.35772500  6.78862500  1.35772500
   6.78862500  6.78862500  1.35772500
   1.35772500  1.35772500  6.78862500
   6.78862500  1.35772500  6.78862500
   1.35772500  6.78862500  6.78862500
   6.78862500  6.78862500  6.78862500
   2.71545000  2.71545000  0.00000000
   8.14635000  2.71545000  0.00000000
   2.71545000  8.14635000  0.00000000
   8.14635000  8.14635000  0.00000000
   2.71545000  2.71545000  5.43090000
   8.14635000  2.71545000  5.43090000
   2.71545000  8.14635000  5.43090000
   8.14635000  8.14635000  5.43090000
   1.35772500  4.07317500  4.07317500
   6.78862500  4.07317500  4.07317500
   1.35772500  9.50407500  4.07317500
   6.78862500  9.50407500  4.07317500
   1.35772500  4.07317500  9.50407500
   6.78862500  4.07317500  9.50407500
   1.35772500  9.50407500  9.50407500
   6.78862500  9.50407500  9.50407500



--------------------------------------------------------------------------------------------------------


 k-point  1 :   0.0000 0.0000 0.0000  plane waves:   11513

 maximum and minimum number of plane-waves per node :      2893     2871

 maximum number of plane-waves:     11513
 maximum index in each direction: 
   IXMAX=   14   IYMAX=   14   IZMAX=   14
   IXMIN=  -14   IYMIN=  -14   IZMIN=  -14


 real space projection operators:
  total allocation   :       1722.50 KBytes
  max/ min on nodes  :        447.75        413.50


 parallel 3D FFT for wavefunctions:
    minimum data exchange during FFTs selected (reduces bandwidth)
 parallel 3D FFT for charge:
    minimum data exchange during FFTs selected (reduces bandwidth)


 total amount of memory used by VASP MPI-rank0    42779. kBytes
=======================================================================

   base      :      30000. kBytes
   nonlr-proj:       1041. kBytes
   fftplans  :       1760. kBytes
   grid      :       2147. kBytes
   one-center:         49. kBytes
   wavefun   :       7782. kBytes

     INWAV:  cpu time    0.2049: real time    0.2050
 Broyden mixing: mesh for mixing (old mesh)
   NGX = 29   NGY = 29   NGZ = 29
  (NGX  = 48   NGY  = 48   NGZ  = 48)
  gives a total of  24389 points

 charge density for first step will be calculated from the start-wavefunctions


--------------------------------------------------------------------------------------------------------


 Maximum index for non-local projection operator          147
 Maximum index for augmentation-charges           90 (set IRDMAX)


--------------------------------------------------------------------------------------------------------


 initial charge from wavefunction
 First call to EWALD:  gamma=   0.163
 Maximum number of real-space cells 3x 3x 3
 Maximum number of reciprocal cells 3x 3x 3

    FEWALD:  cpu time    0.0071: real time    0.0071


--------------------------------------- Iteration      1(   1)  ---------------------------------------


    POTLOK:  cpu time    0.0233: real time    0.0234
    SETDIJ:  cpu time    0.0113: real time    0.0113
    EDDIAG:  cpu time    0.1910: real time    0.1911
  RMM-DIIS:  cpu time    0.4647: real time    0.4651
    ORTHCH:  cpu time    0.0410: real time    0.0410
       DOS:  cpu time    0.0007: real time    0.0007
    CHARGE:  cpu time    0.0473: real time    0.0473
    MIXING:  cpu time    0.0026: real time    0.0026
    --------------------------------------------
      LOOP:  cpu time    0.7820: real time    0.7826

 eigenvalue-minimisations  :   322
 total energy-change (2. order) :-0.3842629E+03  (-0.4342985E+02)
 number of electron     255.9979735 magnetization 
 augmentation part      -14.4733571 magnetization 

 Broyden mixing:
  rms(total) = 0.44432E+01    rms(broyden)= 0.44431E+01
  rms(prec ) = 0.50171E+01
  weight for this iteration     100.00

 Free energy of the ion-electron system (eV)
  ---------------------------------------------------
  alpha Z        PSCENC =       107.59920118
  Ewald energy   TEWEN  =     -7312.82194087
  -Hartree energ DENC   =      -479.40745572
  -exchange      EXHF   =         0.00000000
  -V(xc)+E(xc)   XCENC  =      -537.86136498
  PAW double counting   =     60512.69055474   -59412.81213425
  entropy T*S    EENTRO =        -0.14316242
  eigenvalues    EBANDS =       173.95332842
  atomic energy  EATOM  =      6564.54007760
  Solvation  Ediel_sol  =         0.00000000
  ---------------------------------------------------
  free energy    TOTEN  =      -384.26289630 eV

  energy without entropy =     -384.11973388  energy(sigma->0) =     -384.19131509


--------------------------------------------------------------------------------------------------------




--------------------------------------- Iteration      1(   2)  ---------------------------------------


    POTLOK:  cpu time    0.0180: real time    0.0180
    SETDIJ:  cpu time    0.0190: real time    0.0190
    EDDIAG:  cpu time    0.1645: real time    0.1647
  RMM-DIIS:  cpu time    0.4192: real time    0.4195
    ORTHCH:  cpu time    0.0409: real time    0.0410
       DOS:  cpu time    0.0007: real time    0.0007
    CHARGE:  cpu time    0.0477: real time    0.0478
    MIXING:  cpu time    0.0015: real time    0.0015
    --------------------------------------------
      LOOP:  cpu time    0.7115: real time    0.7121

 eigenvalue-minimisations  :   322
 total energy-change (2. order) : 0.2021273E+02  (-0.2104701E+01)
 number of electron     255.9979690 magnetization 
 augmentation part      -14.5058581 magnetization 

 Broyden mixing:
  rms(total) = 0.26959E+01    rms(broyden)= 0.26959E+01
  rms(prec ) = 0.29003E+01
  weight for this iteration     100.00

 eigenvalues of (default mixing * dielectric matrix)
  average eigenvalue GAMMA=   2.4364
  2.4364

 Free energy of the ion-electron system (eV)
  ---------------------------------------------------
  alpha Z        PSCENC =       107.59920118
  Ewald energy   TEWEN  =     -7312.82194087
  -Hartree energ DENC   =      -469.24051872
  -exchange      EXHF   =         0.00000000
  -V(xc)+E(xc)   XCENC  =      -538.52069436
  PAW double counting   =     48268.42415125   -47168.69979845
  entropy T*S    EENTRO =        -0.00048591
  eigenvalues    EBANDS =       184.66983903
  atomic energy  EATOM  =      6564.54007760
  Solvation  Ediel_sol  =         0.00000000
  ---------------------------------------------------
  free energy    TOTEN  =      -364.05016925 eV

  energy without entropy =     -364.04968334  energy(sigma->0) =     -364.04992629


--------------------------------------------------------------------------------------------------------




--------------------------------------- Iteration      1(   3)  ---------------------------------------


    POTLOK:  cpu time    0.0175: real time    0.0175
    SETDIJ:  cpu time    0.0075: real time    0.0075
    EDDIAG:  cpu time    0.1652: real time    0.1653
  RMM-DIIS:  cpu time    0.4246: real time    0.4249
    ORTHCH:  cpu time    0.0423: real time    0.0423
       DOS:  cpu time    0.0007: real time    0.0007
    CHARGE:  cpu time    0.0473: real time    0.0473
    MIXING:  cpu time    0.0018: real time    0.0018
    --------------------------------------------
      LOOP:  cpu time    0.7068: real time    0.7073

 eigenvalue-minimisations  :   322
 total energy-change (2. order) : 0.3396532E+01  (-0.4298570E+01)
 number of electron     255.9979781 magnetization 
 augmentation part      -14.4406589 magnetization 

 Broyden mixing:
  rms(total) = 0.42172E+00    rms(broyden)= 0.42170E+00
  rms(prec ) = 0.60835E+00
  weight for this iteration     100.00

 eigenvalues of (default mixing * dielectric matrix)
  average eigenvalue GAMMA=   1.7633
  1.2519  2.2747

 Free energy of the ion-electron system (eV)
  ---------------------------------------------------
  alpha Z        PSCENC =       107.59920118
  Ewald energy   TEWEN  =     -7312.82194087
  -Hartree energ DENC   =      -478.14051034
  -exchange      EXHF   =         0.00000000
  -V(xc)+E(xc)   XCENC  =      -537.56592703
  PAW double counting   =     34749.54387152   -33650.58914564
  entropy T*S    EENTRO =        -0.00025017
  eigenvalues    EBANDS =       196.78098628
  atomic energy  EATOM  =      6564.54007760
  Solvation  Ediel_sol  =         0.00000000
  ---------------------------------------------------
  free energy    TOTEN  =      -360.65363747 eV

  energy without entropy =     -360.65338730  energy(sigma->0) =     -360.65351238


--------------------------------------------------------------------------------------------------------




--------------------------------------- Iteration      1(   4)  ---------------------------------------


    POTLOK:  cpu time    0.0176: real time    0.0176
    SETDIJ:  cpu time    0.0080: real time    0.0081
    EDDIAG:  cpu time    0.1651: real time    0.1652
  RMM-DIIS:  cpu time    0.4180: real time    0.4184
    ORTHCH:  cpu time    0.0410: real time    0.0410
       DOS:  cpu time    0.0006: real time    0.0006
    CHARGE:  cpu time    0.0474: real time    0.0474
    MIXING:  cpu time    0.0016: real time    0.0016
    --------------------------------------------
      LOOP:  cpu time    0.6993: real time    0.6999

 eigenvalue-minimisations  :   322
 total energy-change (2. order) : 0.9158706E+00  (-0.1913506E+00)
 number of electron     255.9979775 magnetization 
 augmentation part      -14.4448884 magnetization 

 Broyden mixing:
  rms(total) = 0.24342E+00    rms(broyden)= 0.24342E+00
  rms(prec ) = 0.26240E+00
  weight for this iteration     100.00

 eigenvalues of (default mixing * dielectric matrix)
  average eigenvalue GAMMA=   1.7132
  2.4774  1.0103  1.6519

 Free energy of the ion-electron system (eV)
  ---------------------------------------------------
  alpha Z        PSCENC =       107.59920118
  Ewald energy   TEWEN  =     -7312.82194087
  -Hartree energ DENC   =      -478.06954640
  -exchange      EXHF   =         0.00000000
  -V(xc)+E(xc)   XCENC  =      -537.53660554
  PAW double counting   =     34589.76165397   -33490.76100902
  entropy T*S    EENTRO =        -0.00015648
  eigenvalues    EBANDS =       197.55055868
  atomic energy  EATOM  =      6564.54007760
  Solvation  Ediel_sol  =         0.00000000
  ---------------------------------------------------
  free energy    TOTEN  =      -359.73776688 eV

  energy without entropy =     -359.73761041  energy(sigma->0) =     -359.73768864


--------------------------------------------------------------------------------------------------------




--------------------------------------- Iteration      1(   5)  ---------------------------------------


    POTLOK:  cpu time    0.0175: real time    0.0175
    SETDIJ:  cpu time    0.0077: real time    0.0077
    EDDIAG:  cpu time    0.1645: real time    0.1646
  RMM-DIIS:  cpu time    0.4180: real time    0.4183
    ORTHCH:  cpu time    0.0408: real time    0.0408
       DOS:  cpu time    0.0006: real time    0.0006
    CHARGE:  cpu time    0.0474: real time    0.0475
    MIXING:  cpu time    0.0020: real time    0.0020
    --------------------------------------------
      LOOP:  cpu time    0.6985: real time    0.6991

 eigenvalue-minimisations  :   323
 total energy-change (2. order) : 0.5949201E-02  (-0.3558155E-01)
 number of electron     255.9979783 magnetization 
 augmentation part      -14.4395002 magnetization 

 Broyden mixing:
  rms(total) = 0.58357E-01    rms(broyden)= 0.58356E-01
  rms(prec ) = 0.83544E-01
  weight for this iteration     100.00

 eigenvalues of (default mixing * dielectric matrix)
  average eigenvalue GAMMA=   1.6182
  2.4486  1.0388  1.4926  1.4926

 Free energy of the ion-electron system (eV)
  ---------------------------------------------------
  alpha Z        PSCENC =       107.59920118
  Ewald energy   TEWEN  =     -7312.82194087
  -Hartree energ DENC   =      -479.30611882
  -exchange      EXHF   =         0.00000000
  -V(xc)+E(xc)   XCENC  =      -537.40135981
  PAW double counting   =     33701.18403047   -32602.22652322
  entropy T*S    EENTRO =        -0.00016812
  eigenvalues    EBANDS =       198.70098391
  atomic energy  EATOM  =      6564.54007760
  Solvation  Ediel_sol  =         0.00000000
  ---------------------------------------------------
  free energy    TOTEN  =      -359.73181768 eV

  energy without entropy =     -359.73164956  energy(sigma->0) =     -359.73173362


--------------------------------------------------------------------------------------------------------




--------------------------------------- Iteration      1(   6)  ---------------------------------------


    POTLOK:  cpu time    0.0175: real time    0.0176
    SETDIJ:  cpu time    0.0078: real time    0.0078
    EDDIAG:  cpu time    0.1644: real time    0.1645
  RMM-DIIS:  cpu time    0.4178: real time    0.4181
    ORTHCH:  cpu time    0.0409: real time    0.0410
       DOS:  cpu time    0.0006: real time    0.0006
    CHARGE:  cpu time    0.0472: real time    0.0472
    MIXING:  cpu time    0.0019: real time    0.0020
    --------------------------------------------
      LOOP:  cpu time    0.6982: real time    0.6988

 eigenvalue-minimisations  :   323
 total energy-change (2. order) : 0.1216836E-01  (-0.9722240E-02)
 number of electron     255.9979784 magnetization 
 augmentation part      -14.4385277 magnetization 

 Broyden mixing:
  rms(total) = 0.26422E-01    rms(broyden)= 0.26421E-01
  rms(prec ) = 0.39373E-01
  weight for this iteration     100.00

 eigenvalues of (default mixing * dielectric matrix)
  average eigenvalue GAMMA=   1.6717
  2.4206  2.4206  0.9477  1.2848  1.2848

 Free energy of the ion-electron system (eV)
  ---------------------------------------------------
  alpha Z        PSCENC =       107.59920118
  Ewald energy   TEWEN  =     -7312.82194087
  -Hartree energ DENC   =      -479.43717399
  -exchange      EXHF   =         0.00000000
  -V(xc)+E(xc)   XCENC  =      -537.38849274
  PAW double counting   =     33626.96126934   -32528.00485181
  entropy T*S    EENTRO =        -0.00016898
  eigenvalues    EBANDS =       198.83243096
  atomic energy  EATOM  =      6564.54007760
  Solvation  Ediel_sol  =         0.00000000
  ---------------------------------------------------
  free energy    TOTEN  =      -359.71964932 eV

  energy without entropy =     -359.71948033  energy(sigma->0) =     -359.71956483


--------------------------------------------------------------------------------------------------------




--------------------------------------- Iteration      1(   7)  ---------------------------------------


    POTLOK:  cpu time    0.0180: real time    0.0181
    SETDIJ:  cpu time    0.0074: real time    0.0074
    EDDIAG:  cpu time    0.1648: real time    0.1650
  RMM-DIIS:  cpu time    0.4262: real time    0.4265
    ORTHCH:  cpu time    0.0413: real time    0.0414
       DOS:  cpu time    0.0006: real time    0.0006
    CHARGE:  cpu time    0.0477: real time    0.0477
    MIXING:  cpu time    0.0025: real time    0.0025
    --------------------------------------------
      LOOP:  cpu time    0.7086: real time    0.7092

 eigenvalue-minimisations  :   322
 total energy-change (2. order) : 0.3067939E-02  (-0.1984984E-02)
 number of electron     255.9979784 magnetization 
 augmentation part      -14.4383237 magnetization 

 Broyden mixing:
  rms(total) = 0.70194E-02    rms(broyden)= 0.70188E-02
  rms(prec ) = 0.11200E-01
  weight for this iteration     100.00

 eigenvalues of (default mixing * dielectric matrix)
  average eigenvalue GAMMA=   1.6033
  2.4628  1.8683  1.8683  0.9925  1.2140  1.2140

 Free energy of the ion-electron system (eV)
  ---------------------------------------------------
  alpha Z        PSCENC =       107.59920118
  Ewald energy   TEWEN  =     -7312.82194087
  -Hartree energ DENC   =      -479.51929645
  -exchange      EXHF   =         0.00000000
  -V(xc)+E(xc)   XCENC  =      -537.37847176
  PAW double counting   =     33647.36007192   -32548.39451191
  entropy T*S    EENTRO =        -0.00016822
  eigenvalues    EBANDS =       198.89845714
  atomic energy  EATOM  =      6564.54007760
  Solvation  Ediel_sol  =         0.00000000
  ---------------------------------------------------
  free energy    TOTEN  =      -359.71658138 eV

  energy without entropy =     -359.71641316  energy(sigma->0) =     -359.71649727


--------------------------------------------------------------------------------------------------------




--------------------------------------- Iteration      1(   8)  ---------------------------------------


    POTLOK:  cpu time    0.0179: real time    0.0179
    SETDIJ:  cpu time    0.0076: real time    0.0076
    EDDIAG:  cpu time    0.1646: real time    0.1648
  RMM-DIIS:  cpu time    0.4223: real time    0.4226
    ORTHCH:  cpu time    0.0408: real time    0.0408
       DOS:  cpu time    0.0007: real time    0.0007
    CHARGE:  cpu time    0.0474: real time    0.0475
    MIXING:  cpu time    0.0027: real time    0.0027
    --------------------------------------------
      LOOP:  cpu time    0.7040: real time    0.7046

 eigenvalue-minimisations  :   325
 total energy-change (2. order) : 0.2981804E-03  (-0.1048728E-03)
 number of electron     255.9979784 magnetization 
 augmentation part      -14.4383006 magnetization 

 Broyden mixing:
  rms(total) = 0.43207E-02    rms(broyden)= 0.43207E-02
  rms(prec ) = 0.47655E-02
  weight for this iteration     100.00

 eigenvalues of (default mixing * dielectric matrix)
  average eigenvalue GAMMA=   1.6385
  2.5970  2.5970  1.5236  1.5236  0.9609  1.1338  1.1338

 Free energy of the ion-electron system (eV)
  ---------------------------------------------------
  alpha Z        PSCENC =       107.59920118
  Ewald energy   TEWEN  =     -7312.82194087
  -Hartree energ DENC   =      -479.51551255
  -exchange      EXHF   =         0.00000000
  -V(xc)+E(xc)   XCENC  =      -537.37885267
  PAW double counting   =     33645.88270374   -32546.91763706
  entropy T*S    EENTRO =        -0.00016801
  eigenvalues    EBANDS =       198.89584544
  atomic energy  EATOM  =      6564.54007760
  Solvation  Ediel_sol  =         0.00000000
  ---------------------------------------------------
  free energy    TOTEN  =      -359.71628320 eV

  energy without entropy =     -359.71611519  energy(sigma->0) =     -359.71619919


--------------------------------------------------------------------------------------------------------




--------------------------------------- Iteration      1(   9)  ---------------------------------------


    POTLOK:  cpu time    0.0176: real time    0.0176
    SETDIJ:  cpu time    0.0075: real time    0.0075
    EDDIAG:  cpu time    0.1649: real time    0.1650
  RMM-DIIS:  cpu time    0.4203: real time    0.4207
    ORTHCH:  cpu time    0.0411: real time    0.0412
       DOS:  cpu time    0.0006: real time    0.0006
    CHARGE:  cpu time    0.0473: real time    0.0474
    MIXING:  cpu time    0.0026: real time    0.0026
    --------------------------------------------
      LOOP:  cpu time    0.7020: real time    0.7026

 eigenvalue-minimisations  :   325
 total energy-change (2. order) :-0.6874528E-05  (-0.1157061E-04)
 number of electron     255.9979784 magnetization 
 augmentation part      -14.4382898 magnetization 

 Broyden mixing:
  rms(total) = 0.96317E-03    rms(broyden)= 0.96308E-03
  rms(prec ) = 0.14309E-02
  weight for this iteration     100.00

 eigenvalues of (default mixing * dielectric matrix)
  average eigenvalue GAMMA=   1.5586
  2.4281  2.4281  1.5840  1.5840  1.2458  1.2458  0.9766  0.9766

 Free energy of the ion-electron system (eV)
  ---------------------------------------------------
  alpha Z        PSCENC =       107.59920118
  Ewald energy   TEWEN  =     -7312.82194087
  -Hartree energ DENC   =      -479.53228168
  -exchange      EXHF   =         0.00000000
  -V(xc)+E(xc)   XCENC  =      -537.37675624
  PAW double counting   =     33657.33302938   -32558.36520935
  entropy T*S    EENTRO =        -0.00016766
  eigenvalues    EBANDS =       198.90775756
  atomic energy  EATOM  =      6564.54007760
  Solvation  Ediel_sol  =         0.00000000
  ---------------------------------------------------
  free energy    TOTEN  =      -359.71629007 eV

  energy without entropy =     -359.71612241  energy(sigma->0) =     -359.71620624


--------------------------------------------------------------------------------------------------------




--------------------------------------- Iteration      1(  10)  ---------------------------------------


    POTLOK:  cpu time    0.0176: real time    0.0176
    SETDIJ:  cpu time    0.0076: real time    0.0076
    EDDIAG:  cpu time    0.1638: real time    0.1639
  RMM-DIIS:  cpu time    0.3955: real time    0.3958
    ORTHCH:  cpu time    0.0408: real time    0.0408
       DOS:  cpu time    0.0006: real time    0.0006
    CHARGE:  cpu time    0.0469: real time    0.0469
    MIXING:  cpu time    0.0031: real time    0.0031
    --------------------------------------------
      LOOP:  cpu time    0.6758: real time    0.6763

 eigenvalue-minimisations  :   305
 total energy-change (2. order) : 0.4267808E-05  (-0.1692040E-05)
 number of electron     255.9979784 magnetization 
 augmentation part      -14.4382845 magnetization 

 Broyden mixing:
  rms(total) = 0.47400E-03    rms(broyden)= 0.47399E-03
  rms(prec ) = 0.68710E-03
  weight for this iteration     100.00

 eigenvalues of (default mixing * dielectric matrix)
  average eigenvalue GAMMA=   1.6250
  2.6178  2.6178  2.0551  1.7149  1.2162  1.2162  0.9679  1.1093  1.1093

 Free energy of the ion-electron system (eV)
  ---------------------------------------------------
  alpha Z        PSCENC =       107.59920118
  Ewald energy   TEWEN  =     -7312.82194087
  -Hartree energ DENC   =      -479.53257225
  -exchange      EXHF   =         0.00000000
  -V(xc)+E(xc)   XCENC  =      -537.37673867
  PAW double counting   =     33655.97150992   -32557.00406628
  entropy T*S    EENTRO =        -0.00016769
  eigenvalues    EBANDS =       198.90841126
  atomic energy  EATOM  =      6564.54007760
  Solvation  Ediel_sol  =         0.00000000
  ---------------------------------------------------
  free energy    TOTEN  =      -359.71628580 eV

  energy without entropy =     -359.71611811  energy(sigma->0) =     -359.71620196


--------------------------------------------------------------------------------------------------------




--------------------------------------- Iteration      1(  11)  ---------------------------------------


    POTLOK:  cpu time    0.0176: real time    0.0177
    SETDIJ:  cpu time    0.0074: real time    0.0074
    EDDIAG:  cpu time    0.1644: real time    0.1646
  RMM-DIIS:  cpu time    0.4179: real time    0.4183
    ORTHCH:  cpu time    0.0585: real time    0.0585
       DOS:  cpu time    0.0008: real time    0.0008
    --------------------------------------------
      LOOP:  cpu time    0.6667: real time    0.6672

 eigenvalue-minimisations  :   304
 total energy-change (2. order) : 0.2176057E-06  (-0.7539554E-06)
 number of electron     255.9979784 magnetization 
 augmentation part      -14.4382845 magnetization 

 Free energy of the ion-electron system (eV)
  ---------------------------------------------------
  alpha Z        PSCENC =       107.59920118
  Ewald energy   TEWEN  =     -7312.82194087
  -Hartree energ DENC   =      -479.53659974
  -exchange      EXHF   =         0.00000000
  -V(xc)+E(xc)   XCENC  =      -537.37623706
  PAW double counting   =     33656.80570518   -32557.83811331
  entropy T*S    EENTRO =        -0.00016765
  eigenvalues    EBANDS =       198.91178909
  atomic energy  EATOM  =      6564.54007760
  Solvation  Ediel_sol  =         0.00000000
  ---------------------------------------------------
  free energy    TOTEN  =      -359.71628559 eV

  energy without entropy =     -359.71611794  energy(sigma->0) =     -359.71620176


--------------------------------------------------------------------------------------------------------




 average (electrostatic) potential at core
  the test charge radii are     0.9892
  (the norm of the test charge is              1.0001)
       1 -82.9510       2 -82.9512       3 -82.9516       4 -82.9513       5 -82.9512
       6 -82.9513       7 -82.9517       8 -82.9516       9 -82.9513      10 -82.9512
      11 -82.9515      12 -82.9515      13 -82.9511      14 -82.9511      15 -82.9512
      16 -82.9512      17 -82.9517      18 -82.9518      19 -82.9517      20 -82.9517
      21 -82.9516      22 -82.9516      23 -82.9515      24 -82.9515      25 -82.9515
      26 -82.9513      27 -82.9512      28 -82.9512      29 -82.9515      30 -82.9515
      31 -82.9512      32 -82.9511      33 -82.9516      34 -82.9515      35 -82.9520
      36 -82.9516      37 -82.9514      38 -82.9514      39 -82.9517      40 -82.9518
      41 -82.9512      42 -82.9512      43 -82.9515      44 -82.9514      45 -82.9513
      46 -82.9512      47 -82.9514      48 -82.9515      49 -82.9517      50 -82.9515
      51 -82.9517      52 -82.9515      53 -82.9518      54 -82.9519      55 -82.9517
      56 -82.9516      57 -82.9516      58 -82.9514      59 -82.9514      60 -82.9512
      61 -82.9514      62 -82.9513      63 -82.9510      64 -82.9509



 E-fermi :   6.1318     XC(G=0):  -9.5292     alpha+bet :-11.9786


 k-point     1 :       0.0000    0.0000    0.0000
  band No.  band energies     occupation 
      1      -6.1600      2.00000
      2      -5.0726      2.00000
      3      -5.0726      2.00000
      4      -5.0725      2.00000
      5      -5.0724      2.00000
      6      -5.0724      2.00000
      7      -5.0724      2.00000
      8      -4.1028      2.00000
      9      -4.1028      2.00000
     10      -4.1028      2.00000
     11      -4.1025      2.00000
     12      -4.1025      2.00000
     13      -4.1025      2.00000
     14      -4.1024      2.00000
     15      -4.1024      2.00000
     16      -4.1024      2.00000
     17      -4.1024      2.00000
     18      -4.1024      2.00000
     19      -4.1024      2.00000
     20      -3.8055      2.00000
     21      -3.8052      2.00000
     22      -3.8052      2.00000
     23      -3.8051      2.00000
     24      -1.9925      2.00000
     25      -1.9925      2.00000
     26      -1.9925      2.00000
     27      -1.9925      2.00000
     28      -1.9921      2.00000
     29      -1.9921      2.00000
     30      -1.8207      2.00000
     31      -1.8207      2.00000
     32      -1.8207      2.00000
     33      -1.8207      2.00000
     34      -1.8207      2.00000
     35      -1.8207      2.00000
     36      -1.8206      2.00000
     37      -1.8206      2.00000
     38      -1.8206      2.00000
     39      -1.8203      2.00000
     40      -1.8203      2.00000
     41      -1.8203      2.00000
     42      -1.1868      2.00000
     43      -1.1866      2.00000
     44      -1.1866      2.00000
     45      -1.1866      2.00000
     46       0.3462      2.00000
     47       0.3462      2.00000
     48       0.3462      2.00000
     49       0.3464      2.00000
     50       0.3464      2.00000
     51       0.3464      2.00000
     52       0.3464      2.00000
     53       0.3464      2.00000
     54       0.3464      2.00000
     55       0.3464      2.00000
     56       0.3464      2.00000
     57       0.3464      2.00000
     58       1.9180      2.00000
     59       1.9180      2.00000
     60       1.9180      2.00000
     61       1.9181      2.00000
     62       1.9181      2.00000
     63       1.9181      2.00000
     64       1.9181      2.00000
     65       1.9181      2.00000
     66       1.9181      2.00000
     67       1.9181      2.00000
     68       1.9181      2.00000
     69       1.9181      2.00000
     70       2.0221      2.00000
     71       2.0221      2.00000
     72       2.0221      2.00000
     73       2.0221      2.00000
     74       2.0221      2.00000
     75       2.0222      2.00000
     76       2.0222      2.00000
     77       2.0222      2.00000
     78       2.0222      2.00000
     79       2.0222      2.00000
     80       2.0222      2.00000
     81       2.0222      2.00000
     82       2.3271      2.00000
     83       2.3271      2.00000
     84       2.3271      2.00000
     85       2.3272      2.00000
     86       2.3272      2.00000
     87       2.3272      2.00000
     88       2.9586      2.00000
     89       2.9586      2.00000
     90       2.9586      2.00000
     91       2.9587      2.00000
     92       2.9587      2.00000
     93       2.9587      2.00000
     94       3.9295      2.00000
     95       3.9295      2.00000
     96       3.9295      2.00000
     97       3.9295      2.00000
     98       3.9295      2.00000
     99       3.9295      2.00000
    100       3.9297      2.00000
    101       3.9297      2.00000
    102       3.9297      2.00000
    103       3.9297      2.00000
    104       3.9297      2.00000
    105       3.9297      2.00000
    106       4.5044      2.00000
    107       4.5044      2.00000
    108       4.5044      2.00000
    109       4.5048      2.00000
    110       4.5048      2.00000
    111       4.5048      2.00000
    112       4.5048      2.00000
    113       4.5048      2.00000
    114       4.5048      2.00000
    115       4.5048      2.00000
    116       4.5048      2.00000
    117       4.5048      2.00000
    118       4.6395      2.00000
    119       4.6395      2.00000
    120       4.6398      2.00000
    121       4.6398      2.00000
    122       4.6398      2.00000
    123       4.6399      2.00000
    124       4.6399      2.00000
    125       4.6399      2.00000
    126       5.8556      1.99991
    127       5.8556      1.99991
    128       5.8556      1.99991
    129       6.4196      0.00005
    130       6.4196      0.00005
    131       6.4196      0.00005
    132       6.4196      0.00005
    133       6.4196      0.00005
    134       6.4197      0.00005
    135       6.8631      0.00000
    136       6.8631      0.00000
    137       6.8631      0.00000
    138       6.8633      0.00000
    139       6.8633      0.00000
    140       6.8633      0.00000
    141       7.3073      0.00000
    142       7.3078      0.00000
    143       7.3078      0.00000
    144       7.3078      0.00000
    145       8.1999      0.00000
    146       8.1999      0.00000
    147       8.2000      0.00000
    148       8.2000      0.00000
    149       8.2000      0.00000
    150       8.2001      0.00000
    151       8.2001      0.00000
    152       8.2002      0.00000
    153       8.2004      0.00000
    154       8.2007      0.00000
    155       8.2011      0.00000
    156       8.2013      0.00000
    157       8.3497      0.00000
    158       8.3511      0.00000
    159       8.3565      0.00000
    160       8.8613      0.00000
    161       8.8668      0.00000


--------------------------------------------------------------------------------------------------------


 soft charge-density along one line, spin component           1
         0         1         2         3         4         5         6         7         8         9
 total charge-density along one line

 pseudopotential strength for first ion, spin component:           1
 18.396  25.664   0.000  -0.000   0.000   0.000  -0.000   0.000
 25.664  35.809   0.000  -0.000   0.000   0.000  -0.000   0.000
  0.000   0.000   4.177  -0.000   0.000   7.782  -0.000   0.000
 -0.000  -0.000  -0.000   4.177   0.000  -0.000   7.782   0.000
  0.000   0.000   0.000   0.000   4.177   0.000   0.000   7.782
  0.000   0.000   7.782  -0.000   0.000  14.508  -0.000   0.000
 -0.000  -0.000  -0.000   7.782   0.000  -0.000  14.508   0.000
  0.000   0.000   0.000   0.000   7.782   0.000   0.000  14.508
 total augmentation occupancy for first ion, spin component:           1
  6.288  -2.468  -0.000   0.000  -0.000   0.000  -0.000   0.000
 -2.468   1.056   0.000   0.000  -0.000  -0.000   0.000  -0.000
 -0.000   0.000   3.381   0.000  -0.000  -0.818  -0.000   0.000
  0.000   0.000   0.000   3.381  -0.000  -0.000  -0.818   0.000
 -0.000  -0.000  -0.000  -0.000   3.381   0.000   0.000  -0.818
  0.000  -0.000  -0.818  -0.000   0.000   0.207   0.000  -0.000
 -0.000   0.000  -0.000  -0.818   0.000   0.000   0.207  -0.000
  0.000  -0.000   0.000   0.000  -0.818  -0.000  -0.000   0.207


------------------------ aborting loop because EDIFF is reached ----------------------------------------


    CHARGE:  cpu time    0.0653: real time    0.0654
    FORLOC:  cpu time    0.0166: real time    0.0166
    FORNL :  cpu time    0.2081: real time    0.2082
    STRESS:  cpu time    0.5716: real time    0.5719
    FORCOR:  cpu time    0.0266: real time    0.0266
    FORHAR:  cpu time    0.0129: real time    0.0129
    MIXING:  cpu time    0.0375: real time    0.0375
    OFIELD:  cpu time    0.0000: real time    0.0000

  FORCE on cell =-STRESS in cart. coord.  units (eV):
  Direction    XX          YY          ZZ          XY          YZ          ZX
  --------------------------------------------------------------------------------------
  Alpha Z   107.59920   107.59920   107.59920
  Ewald   -2437.62262 -2437.62262 -2437.62262    -0.00000    -0.00000    -0.00000
  Hartree   159.84618   159.84619   159.84618    -0.00004    -0.00007     0.00001
  E(xc)    -819.92401  -819.92401  -819.92401     0.00000     0.00000     0.00000
  Local    -939.91459  -939.91456  -939.91456     0.00017     0.00030    -0.00002
  n-local  2479.17835  2479.17833  2479.17832    -0.00002    -0.00004    -0.00002
  augment  -363.15842  -363.15842  -363.15842    -0.00001    -0.00001     0.00000
  Kinetic  1822.19467  1822.19464  1822.19464     0.00010     0.00016    -0.00003
  Fock        0.00000     0.00000     0.00000     0.00000     0.00000     0.00000
  -------------------------------------------------------------------------------------
  Total       8.19877     8.19874     8.19874     0.00020     0.00033    -0.00005
  in kB      10.25071    10.25067    10.25067     0.00025     0.00041    -0.00006
  external pressure =       10.25 kB  Pullay stress =        0.00 kB

  kinetic pressure (ideal gas correction) =      4.07 kB
  total pressure  =     14.32 kB
  Total+kin.    13.973      13.863      15.134      -0.155      -0.740       0.095

 VOLUME and BASIS-vectors are now :
 -----------------------------------------------------------------------------
  energy-cutoff  :      250.00
  volume of cell :     1281.46
      direct lattice vectors                 reciprocal lattice vectors
    10.861800000  0.000000000  0.000000000     0.092065772  0.000000000  0.000000000
     0.000000000 10.861800000  0.000000000     0.000000000  0.092065772  0.000000000
     0.000000000  0.000000000 10.861800000     0.000000000  0.000000000  0.092065772

  length of vectors
    10.861800000 10.861800000 10.861800000     0.092065772  0.092065772  0.092065772


 FORCES acting on ions
    electron-ion (+dipol)            ewald-force                    non-local-force                 convergence-correction
 -----------------------------------------------------------------------------------------------
   0.276E-03 0.477E-03 0.295E-04   -.400E-13 -.195E-13 -.933E-14   -.448E-04 -.143E-03 0.262E-03   -.250E-03 -.401E-03 -.268E-03
   0.268E-04 0.340E-04 0.372E-03   -.462E-13 -.213E-13 -.107E-13   -.167E-03 0.138E-03 0.781E-04   0.129E-03 -.140E-03 -.493E-03
   0.490E-03 -.375E-03 0.591E-03   -.409E-13 -.191E-13 -.109E-13   0.759E-04 0.786E-04 -.841E-04   -.616E-03 0.256E-03 -.520E-03
   -.744E-03 -.152E-03 0.179E-03   -.471E-13 -.222E-13 -.124E-13   0.189E-03 -.111E-03 0.166E-03   0.614E-03 0.283E-03 -.321E-03
   -.142E-03 0.183E-03 -.702E-03   -.404E-13 -.193E-13 -.164E-13   0.266E-03 0.470E-04 0.164E-03   -.103E-03 -.214E-03 0.573E-03
   -.362E-03 0.435E-03 -.230E-03   -.400E-13 -.209E-13 -.124E-13   0.123E-03 0.104E-04 -.470E-04   0.231E-03 -.472E-03 0.326E-03
   0.266E-03 -.511E-04 -.474E-03   -.415E-13 -.233E-13 -.711E-14   -.214E-04 -.102E-03 0.280E-04   -.231E-03 0.231E-03 0.458E-03
   -.186E-03 -.594E-03 0.580E-05   -.482E-13 -.191E-13 -.173E-13   -.211E-04 0.165E-03 -.106E-03   0.264E-03 0.433E-03 0.124E-03
   -.115E-02 0.209E-02 -.856E-03   -.409E-13 -.115E-13 0.103E-13   0.460E-01 -.461E-01 0.460E-01   0.368E-03 -.125E-02 0.156E-04
   -.327E-03 0.111E-02 -.221E-03   -.462E-13 -.444E-14 0.122E-14   0.458E-01 -.456E-01 0.458E-01   -.281E-03 -.657E-03 -.424E-03
   -.112E-02 -.876E-04 -.809E-03   -.444E-13 -.799E-14 -.125E-13   0.459E-01 -.461E-01 0.459E-01   0.384E-03 0.102E-02 0.668E-04
   -.578E-03 0.703E-04 -.496E-03   -.480E-13 -.444E-14 -.148E-13   0.461E-01 -.460E-01 0.460E-01   -.355E-03 0.731E-03 -.284E-03
   -.856E-03 0.155E-02 -.662E-03   -.533E-13 -.355E-14 -.284E-14   0.460E-01 -.459E-01 0.460E-01   0.432E-04 -.949E-03 -.818E-04
   -.838E-03 0.161E-02 -.861E-03   -.462E-13 -.711E-14 -.617E-14   0.460E-01 -.458E-01 0.458E-01   -.320E-04 -.993E-03 0.228E-03
   -.896E-03 -.821E-04 -.504E-03   -.586E-13 -.711E-14 -.440E-14   0.458E-01 -.459E-01 0.458E-01   0.304E-03 0.853E-03 -.149E-03
   -.531E-03 -.191E-03 -.127E-02   -.480E-13 -.711E-14 -.440E-14   0.460E-01 -.460E-01 0.462E-01   -.223E-03 0.111E-02 0.318E-03
   0.622E-03 0.117E-02 0.255E-03   -.442E-13 -.178E-13 0.184E-13   0.454E-04 0.199E-04 0.210E-03   -.677E-03 -.123E-02 -.483E-03
   -.774E-03 0.738E-03 0.487E-03   -.508E-13 -.169E-13 0.360E-13   0.377E-04 0.104E-03 -.585E-04   0.765E-03 -.923E-03 -.474E-03
   0.234E-03 -.123E-02 0.380E-03   -.289E-13 -.733E-14 0.102E-13   0.528E-05 0.462E-04 0.872E-04   -.292E-03 0.129E-02 -.397E-03
   -.591E-04 -.674E-03 0.573E-03   -.355E-13 -.622E-14 0.133E-13   -.105E-03 -.179E-03 -.112E-03   0.225E-03 0.895E-03 -.589E-03
   0.245E-03 0.124E-02 -.435E-03   -.409E-13 -.138E-13 0.207E-13   -.875E-04 -.358E-04 -.117E-03   -.197E-03 -.134E-02 0.558E-03
   0.230E-03 0.667E-03 -.728E-03   -.329E-13 -.355E-14 0.173E-13   -.117E-03 0.185E-03 0.713E-04   -.458E-04 -.881E-03 0.751E-03
   0.801E-05 -.101E-02 -.734E-03   -.258E-13 -.151E-13 0.138E-13   0.130E-03 -.127E-03 0.773E-05   -.958E-04 0.117E-02 0.761E-03
   -.195E-03 -.745E-03 -.453E-04   -.320E-13 -.142E-13 0.142E-13   -.239E-04 -.152E-03 -.265E-03   0.185E-03 0.973E-03 0.291E-03
   -.131E-02 -.618E-03 0.104E-02   -.324E-13 0.488E-14 0.284E-13   0.459E-01 0.461E-01 -.457E-01   0.609E-03 -.329E-03 -.587E-03
   -.110E-04 -.230E-03 0.163E-02   -.289E-13 0.244E-14 0.249E-13   0.459E-01 0.460E-01 -.462E-01   -.689E-03 -.627E-03 -.747E-03
   -.110E-02 -.985E-03 0.139E-02   -.195E-13 -.896E-14 0.266E-13   0.460E-01 0.458E-01 -.460E-01   0.285E-03 0.428E-03 -.667E-03
   -.893E-03 -.170E-02 0.126E-02   -.284E-13 -.896E-14 0.266E-13   0.460E-01 0.461E-01 -.458E-01   0.356E-04 0.918E-03 -.739E-03
   -.355E-03 -.939E-04 -.519E-04   -.258E-13 0.776E-14 0.320E-13   0.457E-01 0.459E-01 -.459E-01   -.178E-03 -.620E-03 0.843E-03
   -.918E-03 -.314E-03 0.296E-03   -.346E-13 0.466E-14 0.213E-13   0.460E-01 0.460E-01 -.461E-01   0.697E-04 -.495E-03 0.614E-03
   -.121E-02 -.104E-02 0.464E-03   -.320E-13 0.703E-14 0.338E-13   0.461E-01 0.458E-01 -.462E-01   0.325E-03 0.428E-03 0.574E-03
   -.416E-03 -.130E-02 -.123E-03   -.213E-13 0.792E-14 0.231E-13   0.458E-01 0.459E-01 -.459E-01   -.187E-03 0.620E-03 0.876E-03
   0.157E-03 0.438E-03 0.124E-03   0.160E-13 -.422E-14 -.298E-13   -.676E-04 -.916E-04 0.173E-03   -.117E-03 -.395E-03 -.316E-03
   -.223E-03 -.343E-03 0.333E-03   0.364E-13 -.622E-14 -.409E-13   0.983E-04 0.129E-03 -.107E-05   0.146E-03 0.160E-03 -.378E-03
   -.390E-03 -.145E-03 0.398E-03   0.215E-13 -.178E-14 -.226E-13   0.112E-03 -.922E-04 0.360E-04   0.300E-03 0.202E-03 -.443E-03
   -.109E-03 -.248E-04 0.743E-03   0.309E-13 -.160E-13 -.266E-13   0.127E-03 0.758E-04 -.107E-04   0.445E-04 0.414E-04 -.785E-03
   0.256E-03 -.278E-03 -.319E-03   0.302E-13 0.577E-14 -.235E-13   -.720E-04 0.336E-03 -.916E-04   -.163E-03 -.871E-05 0.452E-03
   -.277E-03 0.107E-02 -.462E-03   0.284E-13 0.355E-14 -.284E-13   0.511E-04 -.224E-03 -.142E-04   0.274E-03 -.904E-03 0.548E-03
   -.228E-03 -.700E-04 -.408E-03   0.178E-13 -.222E-14 -.282E-13   0.614E-04 -.152E-03 -.123E-03   0.174E-03 0.233E-03 0.552E-03
   0.463E-03 -.629E-03 -.725E-03   0.373E-13 -.977E-14 -.231E-13   -.220E-03 0.651E-04 -.758E-04   -.324E-03 0.581E-03 0.797E-03
   0.123E-02 0.174E-02 0.122E-02   0.393E-13 0.115E-13 -.222E-13   -.459E-01 -.459E-01 -.458E-01   -.527E-03 -.108E-02 -.585E-03
   0.525E-03 0.100E-02 0.104E-02   0.272E-13 0.888E-14 -.266E-13   -.460E-01 -.457E-01 -.458E-01   0.288E-03 -.523E-03 -.524E-03
   0.729E-03 -.297E-03 0.185E-02   0.264E-13 0.111E-13 -.111E-13   -.458E-01 -.460E-01 -.461E-01   -.121E-03 0.114E-02 -.106E-02
   0.684E-03 0.400E-03 0.138E-02   0.361E-13 0.178E-13 -.160E-13   -.460E-01 -.460E-01 -.459E-01   0.129E-03 0.477E-03 -.673E-03
   0.779E-03 0.174E-02 -.104E-03   0.429E-13 0.622E-14 -.151E-13   -.459E-01 -.458E-01 -.459E-01   -.107E-03 -.121E-02 0.835E-03
   0.669E-03 0.178E-02 0.675E-03   0.272E-13 0.355E-14 -.142E-13   -.459E-01 -.458E-01 -.462E-01   0.811E-04 -.121E-02 0.327E-03
   0.103E-02 0.708E-04 -.138E-03   0.264E-13 0.160E-13 -.258E-13   -.461E-01 -.461E-01 -.459E-01   -.225E-03 0.895E-03 0.934E-03
   0.765E-03 -.365E-03 -.249E-04   0.356E-13 0.160E-13 -.213E-13   -.459E-01 -.460E-01 -.459E-01   -.272E-04 0.122E-02 0.795E-03
   0.330E-03 0.879E-03 0.615E-03   0.493E-13 0.533E-14 0.733E-14   -.113E-03 0.115E-03 -.153E-05   -.238E-03 -.106E-02 -.602E-03
   -.401E-03 0.609E-03 -.171E-03   0.413E-13 0.533E-14 0.888E-14   0.143E-03 0.953E-04 0.928E-04   0.316E-03 -.770E-03 -.212E-04
   0.201E-03 -.681E-03 0.434E-03   0.506E-13 0.844E-14 0.844E-14   -.953E-04 -.188E-03 0.118E-03   -.797E-04 0.956E-03 -.622E-03
   -.653E-04 -.652E-03 0.788E-03   0.426E-13 0.711E-14 0.355E-14   0.505E-04 -.917E-04 -.255E-04   -.142E-04 0.827E-03 -.687E-03
   -.221E-03 0.795E-03 -.920E-03   0.377E-13 0.844E-14 0.140E-13   0.110E-03 0.186E-03 0.231E-03   0.103E-03 -.101E-02 0.785E-03
   0.147E-03 0.128E-02 0.498E-03   0.373E-13 0.844E-14 0.173E-13   -.739E-04 -.784E-04 -.222E-03   -.951E-04 -.133E-02 -.258E-03
   -.394E-03 -.116E-02 -.111E-03   0.284E-13 0.844E-14 -.977E-14   0.965E-04 0.247E-05 -.261E-03   0.270E-03 0.125E-02 0.325E-03
   0.237E-03 -.107E-02 -.642E-03   0.315E-13 0.102E-13 0.888E-15   -.932E-04 -.118E-03 0.666E-04   -.869E-04 0.121E-02 0.640E-03
   0.105E-02 -.505E-03 -.748E-03   0.399E-13 0.266E-13 0.108E-13   -.459E-01 0.462E-01 0.460E-01   -.415E-03 -.533E-03 -.783E-04
   0.682E-03 0.239E-03 -.287E-03   0.513E-13 0.160E-13 0.875E-14   -.461E-01 0.456E-01 0.460E-01   0.191E-03 -.764E-03 -.460E-03
   0.734E-03 -.119E-02 -.570E-03   0.423E-13 0.233E-13 0.270E-13   -.459E-01 0.458E-01 0.458E-01   -.218E-04 0.615E-03 -.107E-03
   0.810E-03 -.158E-02 -.102E-02   0.502E-13 0.282E-13 0.176E-13   -.460E-01 0.460E-01 0.460E-01   0.332E-04 0.799E-03 0.196E-03
   0.581E-03 0.816E-04 -.998E-03   0.537E-13 0.273E-13 0.110E-13   -.458E-01 0.458E-01 0.461E-01   0.202E-04 -.728E-03 0.173E-03
   0.895E-03 -.976E-03 -.101E-02   0.549E-13 0.167E-13 0.112E-13   -.460E-01 0.462E-01 0.458E-01   -.474E-04 -.619E-04 0.356E-03
   0.124E-02 -.109E-02 -.785E-03   0.561E-13 0.235E-13 0.991E-14   -.460E-01 0.457E-01 0.460E-01   -.450E-03 0.583E-03 0.427E-04
   0.216E-03 -.881E-03 -.436E-03   0.538E-13 0.218E-13 0.990E-14   -.458E-01 0.459E-01 0.459E-01   0.425E-03 0.254E-03 -.252E-03
 -----------------------------------------------------------------------------------------------
   -.472E-03 0.902E-04 -.493E-04   -.427E-13 0.919E-14 0.118E-13   0.421E-03 -.578E-04 0.191E-04   0.119E-03 -.249E-04 0.570E-04


 POSITION                                       TOTAL-FORCE (eV/Angst)
 -----------------------------------------------------------------------------------
      0.00000      0.00000      0.00000        -0.000019     -0.000067      0.000023
      5.43090      0.00000      0.00000        -0.000011      0.000032     -0.000043
      0.00000      5.43090      0.00000        -0.000049     -0.000040     -0.000013
      5.43090      5.43090      0.00000         0.000059      0.000020      0.000023
      0.00000      0.00000      5.43090         0.000022      0.000016      0.000035
      5.43090      0.00000      5.43090        -0.000008     -0.000027      0.000049
      0.00000      5.43090      5.43090         0.000014      0.000078      0.000012
      5.43090      5.43090      5.43090         0.000057      0.000004      0.000024
      4.07317      1.35773      4.07317         0.045227     -0.045269      0.045161
      9.50408      1.35773      4.07317         0.045162     -0.045189      0.045184
      4.07317      6.78863      4.07317         0.045194     -0.045131      0.045195
      9.50408      6.78863      4.07317         0.045141     -0.045181      0.045180
      4.07317      1.35773      9.50408         0.045218     -0.045276      0.045230
      9.50408      1.35773      9.50408         0.045099     -0.045225      0.045179
      4.07317      6.78863      9.50408         0.045191     -0.045094      0.045168
      9.50408      6.78863      9.50408         0.045233     -0.045121      0.045209
      0.00000      2.71545      2.71545        -0.000010     -0.000046     -0.000018
      5.43090      2.71545      2.71545         0.000029     -0.000082     -0.000046
      0.00000      8.14635      2.71545        -0.000053      0.000107      0.000071
      5.43090      8.14635      2.71545         0.000061      0.000043     -0.000128
      0.00000      2.71545      8.14635        -0.000040     -0.000138      0.000006
      5.43090      2.71545      8.14635         0.000067     -0.000029      0.000095
      0.00000      8.14635      8.14635         0.000042      0.000037      0.000034
      5.43090      8.14635      8.14635        -0.000035      0.000077     -0.000019
      4.07317      4.07317      1.35773         0.045210      0.045123     -0.045200
      9.50408      4.07317      1.35773         0.045191      0.045178     -0.045301
      4.07317      9.50408      1.35773         0.045197      0.045198     -0.045295
      9.50408      9.50408      1.35773         0.045118      0.045275     -0.045241
      4.07317      4.07317      6.78863         0.045163      0.045153     -0.045139
      9.50408      4.07317      6.78863         0.045177      0.045167     -0.045157
      4.07317      9.50408      6.78863         0.045233      0.045231     -0.045114
      9.50408      9.50408      6.78863         0.045184      0.045215     -0.045117
      2.71545      0.00000      2.71545        -0.000028     -0.000049     -0.000018
      8.14635      0.00000      2.71545         0.000021     -0.000054     -0.000046
      2.71545      5.43090      2.71545         0.000023     -0.000036     -0.000009
      8.14635      5.43090      2.71545         0.000063      0.000092     -0.000053
      2.71545      0.00000      8.14635         0.000021      0.000050      0.000042
      8.14635      0.00000      8.14635         0.000048     -0.000058      0.000072
      2.71545      5.43090      8.14635         0.000007      0.000011      0.000021
      8.14635      5.43090      8.14635        -0.000082      0.000017     -0.000003
      1.35773      1.35773      1.35773        -0.045180     -0.045236     -0.045198
      6.78863      1.35773      1.35773        -0.045229     -0.045252     -0.045298
      1.35773      6.78863      1.35773        -0.045157     -0.045120     -0.045330
      6.78863      6.78863      1.35773        -0.045183     -0.045099     -0.045180
      1.35773      1.35773      6.78863        -0.045200     -0.045277     -0.045141
      6.78863      1.35773      6.78863        -0.045164     -0.045253     -0.045162
      1.35773      6.78863      6.78863        -0.045280     -0.045150     -0.045137
      6.78863      6.78863      6.78863        -0.045198     -0.045127     -0.045156
      2.71545      2.71545      0.00000        -0.000020     -0.000062      0.000012
      8.14635      2.71545      0.00000         0.000057     -0.000066     -0.000099
      2.71545      8.14635      0.00000         0.000026      0.000088     -0.000069
      8.14635      8.14635      0.00000        -0.000029      0.000083      0.000075
      2.71545      2.71545      5.43090        -0.000007     -0.000033      0.000096
      8.14635      2.71545      5.43090        -0.000022     -0.000133      0.000018
      2.71545      8.14635      5.43090        -0.000028      0.000092     -0.000047
      8.14635      8.14635      5.43090         0.000057      0.000029      0.000064
      1.35773      4.07317      4.07317        -0.045245      0.045185      0.045138
      6.78863      4.07317      4.07317        -0.045202      0.045119      0.045233
      1.35773      9.50408      4.07317        -0.045155      0.045201      0.045155
      6.78863      9.50408      4.07317        -0.045175      0.045266      0.045178
      1.35773      4.07317      9.50408        -0.045193      0.045152      0.045269
      6.78863      4.07317      9.50408        -0.045198      0.045151      0.045153
      1.35773      9.50408      9.50408        -0.045184      0.045207      0.045235
      6.78863      9.50408      9.50408        -0.045158      0.045225      0.045162
 -----------------------------------------------------------------------------------
    total drift:                                0.000067      0.000008      0.000027


--------------------------------------------------------------------------------------------------------



  FREE ENERGIE OF THE ION-ELECTRON SYSTEM (eV)
  ---------------------------------------------------
  free  energy   TOTEN  =      -359.71628559 eV

  energy  without entropy=     -359.71611794  energy(sigma->0) =     -359.71620176



--------------------------------------------------------------------------------------------------------


    POTLOK:  cpu time    0.0328: real time    0.0329


--------------------------------------------------------------------------------------------------------


           RANDOM_SEED =         144394820                0                0

  MD-specific parameters
                MDALGO =   2
           RANDOM_SEED =         144394820              768                0
   IONSTEP:  cpu time    0.0039: real time    0.0039

  ENERGY OF THE ELECTRON-ION-THERMOSTAT SYSTEM (eV)
  ---------------------------------------------------
% ion-electron   TOTEN  =      -359.716286  see above
  kinetic energy EKIN   =         4.886058
  kin. lattice  EKIN_LAT=         0.000000  (temperature  600.00 K)
  nose potential ES     =         0.000000
  nose kinetic   EPS    =         0.000000
  ---------------------------------------------------
  total energy   ETOTAL =      -354.830228 eV

  maximum distance moved by ions :      0.35E-02

    WAVPRE:  cpu time    0.1865: real time    0.1866
    FEWALD:  cpu time    0.0045: real time    0.0045
    GENKIN:  cpu time    0.0007: real time    0.0007

 real space projection operators:
  total allocation   :       1725.25 KBytes
  max/ min on nodes  :        447.50        414.19

    ORTHCH:  cpu time    0.1069: real time    0.1070
     LOOP+:  cpu time    9.0464: real time    9.0538


--------------------------------------- Iteration      2(   1)  ---------------------------------------


    POTLOK:  cpu time    0.0186: real time    0.0186
    SETDIJ:  cpu time    0.0069: real time    0.0069
    EDDIAG:  cpu time    0.1652: real time    0.1654
  RMM-DIIS:  cpu time    0.4182: real time    0.4185
    ORTHCH:  cpu time    0.0407: real time    0.0408
       DOS:  cpu time    0.0007: real time    0.0007
    CHARGE:  cpu time    0.0470: real time    0.0471
    MIXING:  cpu time    0.0012: real time    0.0012
    --------------------------------------------
      LOOP:  cpu time    0.6985: real time    0.6991

 eigenvalue-minimisations  :   322
 total energy-change (2. order) : 0.2197388E+00  (-0.7664372E+00)
 number of electron     255.9980814 magnetization 
 augmentation part      -14.4396810 magnetization 

 Broyden mixing:
  rms(total) = 0.80993E-01    rms(broyden)= 0.80971E-01
  rms(prec ) = 0.94301E-01
  weight for this iteration     100.00

 Free energy of the ion-electron system (eV)
  ---------------------------------------------------
  alpha Z        PSCENC =       107.59920118
  Ewald energy   TEWEN  =     -7312.07046876
  -Hartree energ DENC   =      -479.89477448
  -exchange      EXHF   =         0.00000000
  -V(xc)+E(xc)   XCENC  =      -537.38672970
  PAW double counting   =     33656.56502583   -32557.59742742
  entropy T*S    EENTRO =        -0.00040649
  eigenvalues    EBANDS =       198.74895528
  atomic energy  EATOM  =      6564.54007760
  Solvation  Ediel_sol  =         0.00000000
  ---------------------------------------------------
  free energy    TOTEN  =      -359.49654696 eV

  energy without entropy =     -359.49614047  energy(sigma->0) =     -359.49634372


--------------------------------------------------------------------------------------------------------




--------------------------------------- Iteration      2(   2)  ---------------------------------------


    POTLOK:  cpu time    0.0175: real time    0.0175
    SETDIJ:  cpu time    0.0071: real time    0.0072
    EDDIAG:  cpu time    0.1631: real time    0.1632
  RMM-DIIS:  cpu time    0.4142: real time    0.4146
    ORTHCH:  cpu time    0.0410: real time    0.0410
       DOS:  cpu time    0.0007: real time    0.0007
    CHARGE:  cpu time    0.0470: real time    0.0471
    MIXING:  cpu time    0.0013: real time    0.0013
    --------------------------------------------
      LOOP:  cpu time    0.6919: real time    0.6925

 eigenvalue-minimisations  :   322
 total energy-change (2. order) :-0.1231889E-01  (-0.2150095E-01)
 number of electron     255.9980808 magnetization 
 augmentation part      -14.4406875 magnetization 

 Broyden mixing:
  rms(total) = 0.60515E-01    rms(broyden)= 0.60511E-01
  rms(prec ) = 0.73432E-01
  weight for this iteration     100.00

 eigenvalues of (default mixing * dielectric matrix)
  average eigenvalue GAMMA=   1.1329
  1.1329

 Free energy of the ion-electron system (eV)
  ---------------------------------------------------
  alpha Z        PSCENC =       107.59920118
  Ewald energy   TEWEN  =     -7312.07046876
  -Hartree energ DENC   =      -479.86001863
  -exchange      EXHF   =         0.00000000
  -V(xc)+E(xc)   XCENC  =      -537.38854512
  PAW double counting   =     33672.41835264   -32573.45093786
[...]
    STRESS:  cpu time    0.6362: real time    0.6367
    FORCOR:  cpu time    0.0263: real time    0.0263
    FORHAR:  cpu time    0.0129: real time    0.0129
    MIXING:  cpu time    0.0355: real time    0.0355
    OFIELD:  cpu time    0.0000: real time    0.0000

  FORCE on cell =-STRESS in cart. coord.  units (eV):
  Direction    XX          YY          ZZ          XY          YZ          ZX
  --------------------------------------------------------------------------------------
  Alpha Z   107.59920   107.59920   107.59920
  Ewald   -2435.06445 -2438.06584 -2436.82456    19.03288    40.48241    -5.82507
  Hartree   160.35520   159.07019   159.81445     1.24404     4.05802    -0.54717
  E(xc)    -819.43280  -819.33861  -819.40113    -0.33062    -0.53060     0.04669
  Local    -942.02641  -937.34018  -939.83966   -19.27855   -41.56182     5.90449
  n-local  2481.08476  2480.56930  2480.65620     5.23587     8.45167    -0.79590
  augment  -364.05974  -364.01243  -364.04012    -0.28680    -0.39638    -0.00427
  Kinetic  1820.83115  1820.44422  1820.40002    -2.24508    -4.46539     1.35033
  Fock        0.00000     0.00000     0.00000     0.00000     0.00000     0.00000
  -------------------------------------------------------------------------------------
  Total       9.28692     8.92585     8.36440     3.37174     6.03791     0.12910
  in kB      11.61120    11.15975    10.45780     4.21560     7.54904     0.16141
  external pressure =       11.08 kB  Pullay stress =        0.00 kB

  kinetic pressure (ideal gas correction) =      3.08 kB
  total pressure  =     14.15 kB
  Total+kin.    14.089      14.553      13.812       4.104       7.584      -0.204

 VOLUME and BASIS-vectors are now :
 -----------------------------------------------------------------------------
  energy-cutoff  :      250.00
  volume of cell :     1281.46
      direct lattice vectors                 reciprocal lattice vectors
    10.861800000  0.000000000  0.000000000     0.092065772  0.000000000  0.000000000
     0.000000000 10.861800000  0.000000000     0.000000000  0.092065772  0.000000000
     0.000000000  0.000000000 10.861800000     0.000000000  0.000000000  0.092065772

  length of vectors
    10.861800000 10.861800000 10.861800000     0.092065772  0.092065772  0.092065772


 FORCES acting on ions
    electron-ion (+dipol)            ewald-force                    non-local-force                 convergence-correction
 -----------------------------------------------------------------------------------------------
   0.397E+01 0.512E+01 -.383E+00   -.325E+01 -.483E+01 -.452E-03   -.128E+01 -.673E+00 0.105E+01   -.115E-03 0.139E-03 -.797E-03
   -.170E+01 -.306E+01 0.607E+01   0.145E+01 0.230E+01 -.568E+01   -.366E+00 0.200E+01 -.573E+00   0.557E-03 -.521E-03 0.202E-03
   -.241E+01 0.241E+01 0.498E+01   0.207E+01 -.178E+01 -.454E+01   0.109E+01 -.113E+01 -.174E+01   0.202E-03 0.117E-02 0.307E-03
   -.482E+01 -.380E+01 -.279E+01   0.405E+01 0.306E+01 0.206E+01   0.153E+01 0.112E+01 0.111E+01   0.101E-02 0.848E-03 -.163E-03
   -.186E+01 0.282E+01 0.413E+01   0.156E+01 -.299E+01 -.333E+01   -.240E+00 0.447E+00 -.154E+01   0.563E-04 0.581E-03 0.425E-03
   0.335E+01 0.798E+01 0.215E+01   -.308E+01 -.653E+01 -.177E+01   -.692E+00 -.346E+01 -.173E+01   -.798E-03 -.142E-02 -.371E-03
   -.267E+01 -.742E+00 -.352E+00   0.252E+01 0.833E+00 0.498E-01   -.802E-01 0.689E+00 -.452E+00   0.201E-03 -.105E-02 -.223E-03
   0.360E+01 0.153E-01 -.428E+01   -.306E+01 -.292E+00 0.384E+01   -.107E+01 -.437E+00 0.887E+00   0.643E-03 -.561E-04 0.343E-03
   -.301E+01 0.709E-01 0.154E+01   0.233E+01 0.125E+00 -.105E+01   0.144E+01 -.202E+00 -.381E+00   -.422E-03 0.976E-04 -.343E-04
   -.815E+01 -.244E+01 -.255E-01   0.725E+01 0.152E+01 -.389E+00   0.243E+01 0.113E+01 0.530E+00   0.348E-03 0.109E-02 -.143E-04
   0.664E+01 0.337E+01 0.588E+00   -.577E+01 -.263E+01 -.587E+00   -.138E+01 -.860E+00 0.724E+00   0.516E-04 0.170E-03 -.934E-04
   0.769E+00 0.368E+01 -.189E+01   -.496E+00 -.345E+01 0.156E+01   -.116E+01 -.967E-01 -.220E+00   0.177E-05 -.846E-03 -.265E-03
   -.875E+00 0.424E+01 -.224E+01   0.779E+00 -.394E+01 0.198E+01   0.455E+00 -.152E+01 0.467E+00   0.620E-04 0.141E-03 0.171E-03
   0.561E+01 0.625E+01 0.799E+00   -.489E+01 -.523E+01 -.878E+00   -.188E+01 -.194E+01 -.435E+00   -.568E-04 0.339E-04 -.744E-03
   -.292E+01 -.504E+01 -.148E+01   0.220E+01 0.412E+01 0.118E+01   0.140E+01 0.194E+01 0.649E+00   0.164E-02 0.782E-03 0.104E-02
   -.456E+01 -.617E+01 -.138E+01   0.459E+01 0.573E+01 0.132E+01   0.121E+01 0.152E+01 0.100E+01   0.108E-03 0.178E-02 0.125E-02
   0.327E+01 -.174E+01 -.438E+01   -.288E+01 0.150E+01 0.388E+01   -.100E+01 0.612E+00 0.174E+01   -.538E-03 -.627E-05 0.869E-03
   -.263E+01 -.250E+01 -.544E+01   0.240E+01 0.235E+01 0.484E+01   -.228E+00 0.846E+00 0.168E+01   0.180E-04 0.937E-03 0.467E-03
   0.339E+01 -.330E+01 -.932E+00   -.290E+01 0.247E+01 0.119E+01   0.226E-01 0.152E+01 -.353E+00   0.216E-03 -.427E-03 -.463E-04
   -.236E+01 -.241E+01 0.318E+01   0.182E+01 0.238E+01 -.268E+01   -.585E-01 0.240E+00 -.941E+00   -.795E-03 0.189E-03 -.535E-03
   -.387E+01 -.823E+00 0.190E+01   0.318E+01 0.676E+00 -.140E+01   0.994E+00 0.900E+00 -.802E+00   -.679E-03 -.687E-03 -.406E-03
   0.643E-01 -.172E+01 0.202E+00   -.142E+00 0.152E+01 -.675E-01   -.247E+00 0.180E+01 -.100E+01   0.127E-02 0.558E-03 0.731E-04
   -.221E+01 -.249E+01 0.131E+01   0.166E+01 0.256E+01 -.136E+01   0.106E+01 -.154E+00 0.177E+00   -.508E-03 0.587E-03 0.112E-02
   0.768E+00 -.616E+00 -.303E+00   -.338E+00 0.693E+00 0.229E+00   0.961E-01 -.473E+00 0.626E+00   0.118E-02 -.580E-03 0.624E-03
   -.231E+00 -.299E+01 -.592E+01   0.122E+00 0.233E+01 0.512E+01   -.162E+00 0.146E+01 0.170E+01   0.509E-03 0.860E-04 0.975E-03
   -.906E+00 0.199E+00 -.409E+01   0.319E+00 -.373E+00 0.328E+01   0.342E+00 -.774E-01 0.102E+01   -.935E-03 -.653E-03 0.111E-02
   0.578E+01 0.491E-01 0.179E+01   -.441E+01 0.167E+00 -.183E+01   -.159E+01 -.858E+00 -.287E+00   0.661E-03 -.246E-03 -.198E-03
   -.381E+01 -.550E+01 -.459E+01   0.331E+01 0.486E+01 0.414E+01   0.979E+00 0.102E+01 0.130E+01   -.257E-03 0.669E-04 -.650E-03
   -.301E+01 0.146E+01 -.203E+01   0.293E+01 -.148E+01 0.223E+01   0.462E+00 0.300E+00 0.660E+00   0.338E-04 -.146E-03 -.623E-04
   0.395E+01 0.379E+00 -.130E+01   -.292E+01 -.865E+00 0.112E+01   -.923E-01 -.198E+00 0.355E+00   -.596E-03 -.146E-02 -.860E-03
   -.400E+00 -.162E+01 0.214E+01   -.225E+00 0.185E+01 -.156E+01   0.859E+00 0.875E-01 -.143E+01   0.475E-03 0.442E-03 -.150E-02
   0.484E+00 -.148E+01 -.533E+01   -.533E+00 0.131E+01 0.455E+01   0.531E+00 0.160E+00 0.180E+01   -.263E-03 0.705E-03 0.514E-03
   0.421E+01 0.692E+01 -.186E+01   -.372E+01 -.628E+01 0.180E+01   -.105E+01 -.141E+01 0.101E+00   0.116E-03 0.649E-03 -.407E-03
   0.197E+01 0.701E+01 0.848E+00   -.177E+01 -.577E+01 -.736E+00   -.696E+00 -.238E+01 -.786E+00   -.508E-03 0.622E-03 -.813E-03
   0.174E+01 0.462E+00 -.424E+01   -.188E+01 -.381E+00 0.360E+01   0.326E+00 -.708E+00 0.800E+00   0.238E-04 -.122E-03 0.324E-03
   -.463E+01 -.237E+00 -.436E+01   0.394E+01 -.112E+00 0.429E+01   0.156E+01 0.476E+00 0.161E+01   0.173E-04 -.147E-02 0.721E-03
   0.441E+01 -.582E+01 -.758E+00   -.392E+01 0.495E+01 0.890E+00   -.931E+00 0.146E+01 0.133E+00   -.696E-03 0.657E-03 -.736E-04
   -.160E+01 -.321E+01 -.723E+01   0.150E+01 0.283E+01 0.610E+01   0.420E+00 0.158E+00 0.120E+01   -.373E-04 0.713E-03 -.186E-04
   0.251E+01 0.649E+01 0.382E+01   -.236E+01 -.572E+01 -.377E+01   -.768E+00 -.216E+01 -.693E+00   -.621E-03 -.881E-03 -.118E-02
   0.390E+01 0.536E+01 0.364E-01   -.357E+01 -.441E+01 0.204E+00   -.212E+01 -.182E+01 -.283E+00   -.187E-02 -.915E-03 -.669E-03
   -.110E+01 0.564E+01 -.887E+00   0.753E+00 -.524E+01 0.653E+00   0.348E+00 -.768E+00 0.142E+00   0.273E-03 -.394E-03 0.466E-03
   0.392E+00 0.345E+01 0.609E+01   -.208E-01 -.346E+01 -.542E+01   0.110E+00 -.737E+00 -.144E+01   0.992E-03 -.639E-03 -.237E-03
   0.152E+01 -.254E+01 -.181E+01   -.176E+01 0.254E+01 0.177E+01   0.131E+00 -.110E+00 0.831E+00   -.368E-03 -.103E-03 -.119E-03
   -.391E+00 -.147E+01 0.692E+01   0.953E+00 0.149E+01 -.564E+01   -.561E+00 0.250E+00 -.229E+01   -.597E-03 0.552E-04 -.122E-02
   -.232E+01 -.754E+00 -.195E+01   0.185E+01 0.258E+00 0.175E+01   0.153E+01 0.698E+00 0.108E+01   -.520E-03 0.285E-03 -.381E-04
   -.660E+01 -.403E+01 -.162E+01   0.568E+01 0.328E+01 0.185E+01   0.203E+01 0.104E+01 0.135E+01   0.157E-02 0.758E-03 0.172E-02
   0.531E+01 -.578E+01 0.209E+01   -.461E+01 0.514E+01 -.156E+01   -.114E+01 0.987E+00 -.273E+00   0.960E-04 -.104E-02 -.399E-03
   -.252E+01 -.110E+01 0.364E-01   0.256E+01 0.125E+01 -.446E+00   -.185E-01 0.477E+00 -.367E+00   -.426E-03 -.666E-03 0.172E-03
   0.358E+01 -.166E+01 0.690E+01   -.291E+01 0.150E+01 -.616E+01   -.759E+00 0.245E+00 -.198E+01   -.188E-05 -.722E-03 -.275E-03
   0.502E+01 0.221E+01 0.499E+01   -.439E+01 -.186E+01 -.419E+01   -.914E+00 0.148E+00 -.114E+01   -.120E-03 -.189E-03 -.127E-03
   -.189E+01 -.667E+01 -.146E+01   0.135E+01 0.595E+01 0.140E+01   0.734E+00 0.180E+01 -.709E-01   0.320E-03 0.202E-03 0.138E-03
   -.637E+00 -.151E+01 -.798E+00   0.829E+00 0.161E+01 0.748E+00   -.109E+01 -.105E+01 -.959E+00   -.418E-03 -.105E-03 -.125E-02
   0.177E+01 -.148E+01 -.693E+01   -.148E+01 0.166E+01 0.567E+01   -.745E+00 -.113E-01 0.121E+01   -.566E-03 0.325E-03 -.131E-03
   0.110E+00 -.444E+01 0.395E+01   -.198E+00 0.403E+01 -.363E+01   -.121E+01 0.142E+01 -.512E+00   0.528E-03 0.127E-02 0.612E-03
   -.564E+00 -.926E+00 0.896E+00   -.599E-01 0.704E+00 -.121E+01   0.225E+00 0.278E+00 -.700E-01   0.506E-03 0.318E-03 -.611E-03
   -.123E+01 0.392E+01 0.618E+01   0.137E+01 -.327E+01 -.507E+01   -.525E+00 -.132E+01 -.853E+00   -.582E-03 0.497E-04 0.348E-03
   0.195E+01 -.271E+01 0.419E+01   -.139E+01 0.229E+01 -.329E+01   -.550E+00 0.418E+00 -.124E+01   -.186E-03 -.303E-03 0.506E-03
   -.130E+01 0.703E+01 -.269E+01   0.130E+01 -.537E+01 0.244E+01   0.962E+00 -.310E+01 -.738E+00   0.959E-03 -.105E-03 -.141E-03
   -.872E-01 0.239E+01 0.423E+01   -.134E+00 -.271E+01 -.350E+01   0.417E+00 0.546E+00 -.971E+00   -.817E-04 -.124E-03 0.317E-03
   0.172E+01 -.485E+01 -.642E+01   -.139E+01 0.409E+01 0.572E+01   0.264E+00 0.167E+01 0.117E+01   -.531E-03 0.240E-03 0.324E-03
   0.107E+01 0.187E+00 0.103E+01   -.102E+01 0.129E+00 -.131E+01   -.495E+00 -.410E+00 0.853E+00   -.703E-04 -.615E-03 -.681E-03
   -.313E+01 0.233E+01 0.389E+01   0.250E+01 -.241E+01 -.354E+01   0.159E+01 -.660E+00 -.471E+00   0.143E-03 -.207E-03 -.631E-03
   0.203E+01 0.656E+01 0.205E+01   -.189E+01 -.551E+01 -.207E+01   -.368E+00 -.156E+01 -.665E+00   -.679E-03 0.871E-04 0.376E-03
   -.463E+01 -.523E+00 0.333E+01   0.425E+01 0.888E+00 -.280E+01   0.483E+00 0.521E+00 -.246E+00   0.441E-03 -.419E-03 0.667E-03
 -----------------------------------------------------------------------------------------------
   -.169E+00 -.136E+00 0.915E-01   -.364E-13 -.515E-13 0.568E-13   0.588E+00 0.984E-01 0.136E-01   0.384E-03 -.478E-03 0.185E-03


 POSITION                                       TOTAL-FORCE (eV/Angst)
 -----------------------------------------------------------------------------------
      0.09922      0.03331     10.85693        -0.552303     -0.387712      0.665538
      5.54340     10.68293     10.82092        -0.618983      1.236234     -0.184182
     10.76615      5.45663      0.01766         0.747007     -0.497963     -1.305508
      5.36753      5.43038     10.85777         0.763103      0.383221      0.380849
      0.03154     10.75261      5.37404        -0.535491      0.275098     -0.738891
      5.31225      0.19121      5.58438        -0.421531     -2.004697     -1.357643
      0.10721      5.24576      5.58972        -0.233707      0.779619     -0.754159
      5.45611      5.58873      5.42668        -0.524375     -0.713966      0.440186
      4.01052      1.41498      4.05850         0.764753     -0.006199      0.113580
      9.50860      1.33662      4.02443         1.534938      0.202107      0.115203
      4.14727      6.82745      3.94066        -0.508436     -0.125241      0.725556
      9.58418      6.59113      4.18390        -0.884728      0.134211     -0.559176
      4.04585      1.38220      9.56228         0.358965     -1.224066      0.208745
      9.60962      1.44127      9.59896        -1.157838     -0.929921     -0.515103
      4.03167      6.72394      9.51139         0.686866      1.027307      0.348503
      9.44424      6.80377      9.47835         1.238969      1.077999      0.946034
      0.04392      2.66504      2.55619        -0.619387      0.367633      1.236827
      5.44175      2.69847      2.66375        -0.457659      0.696707      1.085037
     10.76250      8.00898      2.73949         0.513723      0.688257     -0.098413
      5.52409      8.16487      2.70533        -0.594585      0.209903     -0.440452
     10.83919      2.67270      8.13452         0.299277      0.752556     -0.303883
      5.45889      2.58050      8.19457        -0.323507      1.604194     -0.870073
     10.77415      8.19212      8.06098         0.510209     -0.088127      0.128887
      5.35169      8.12234      8.12073         0.526976     -0.396688      0.553380
      4.09305      4.04752      1.32651        -0.270828      0.791753      0.907545
      9.48677      4.06340      1.31784        -0.245516     -0.252291      0.206646
      4.12904      9.53052      1.38995        -0.223084     -0.642050     -0.324662
      9.50425      9.60874      1.41901         0.482800      0.380629      0.839698
      4.10399      4.07165      6.72541         0.377848      0.277919      0.861657
      9.41338      4.08697      6.85734         0.940296     -0.685562      0.179619
      4.01456      9.56091      6.93210         0.233992      0.321710     -0.845864
      9.38785      9.57142      6.66903         0.481931     -0.010795      1.021771
      2.76764      0.01940      2.74242        -0.561938     -0.773853      0.041117
      8.06340      0.08651      2.83822        -0.499282     -1.142855     -0.674535
      2.67446      5.49553      2.66084         0.178628     -0.626665      0.163302
      8.06574      5.37029      2.62550         0.873463      0.126539      1.540520
      2.63297      0.02496      8.19092        -0.442896      0.583284      0.264482
      8.11381      0.10300      8.12486         0.320194     -0.221181      0.070189
      2.77579      5.51072      8.13398        -0.625033     -1.391490     -0.653362
      8.20667      5.48760      8.19890        -1.795230     -0.868748     -0.043769
      1.45658      1.34623      1.34607        -0.000130     -0.371832     -0.091606
      6.74010      1.34415      1.38597         0.482129     -0.741134     -0.766627
      1.28735      6.79136      1.27510        -0.105830     -0.105894      0.782888
      6.82133      6.80514      1.36966         0.000179      0.273666     -1.009171
      1.23607      1.31894      6.67901         1.064657      0.202126      0.876638
      6.78688      1.43886      6.64974         1.114526      0.293191      1.581160
      1.43193      6.80044      6.75877        -0.437385      0.346394      0.256460
      6.82916      6.80052      6.86638         0.018389      0.617923     -0.776241
      2.72300      2.76095      0.06785        -0.088480      0.077785     -1.236536
      8.11729      2.68631      0.03540        -0.281211      0.503717     -0.328566
      2.73656      8.06081      0.04337         0.189481      1.075576     -0.136262
      8.26815      8.23861      0.09719        -0.894028     -0.937096     -1.010048
      2.71249      2.71188      5.43245        -0.456286      0.163895     -0.047379
      8.27808      2.70714      5.38691        -1.293571      1.021179     -0.193505
      2.85928      8.14276      5.44282        -0.397969      0.056396     -0.386220
      8.16169      8.13821      5.36098        -0.395022     -0.672111      0.256541
      1.36670      4.02182      4.04044         0.010770     -0.010801     -0.335427
      6.71085      4.17970      4.14517         0.970391     -1.446551     -0.985430
      1.38415      9.36915      4.04559         0.195519      0.229330     -0.239926
      6.65525      9.50600      4.15859         0.591025      0.920353      0.470226
      1.38816      4.10139      9.43541        -0.439501     -0.094678      0.569562
      6.70439      4.11844      9.50708         0.954167     -0.748529     -0.120511
      1.35994      9.46700      9.56341        -0.226247     -0.503153     -0.681359
      6.86728      9.35112      9.40746         0.105850      0.885468      0.281372
 -----------------------------------------------------------------------------------
    total drift:                                0.419025     -0.037968      0.105232


--------------------------------------------------------------------------------------------------------



  FREE ENERGIE OF THE ION-ELECTRON SYSTEM (eV)
  ---------------------------------------------------
  free  energy   TOTEN  =      -356.50033701 eV

  energy  without entropy=     -356.47634487  energy(sigma->0) =     -356.48834094

 d Force =-0.3336194E+00[-0.465E+00,-0.202E+00]  d Energy =-0.3319164E+00-0.170E-02
 d Force = 0.4649360E+00[-0.112E+00, 0.104E+01]  d Ewald  = 0.4646731E+00 0.263E-03


--------------------------------------------------------------------------------------------------------


    POTLOK:  cpu time    0.0355: real time    0.0356


--------------------------------------------------------------------------------------------------------


           RANDOM_SEED =         144394820              768                0
   IONSTEP:  cpu time    0.0002: real time    0.0002

  ENERGY OF THE ELECTRON-ION-THERMOSTAT SYSTEM (eV)
  ---------------------------------------------------
% ion-electron   TOTEN  =      -356.500337  see above
  kinetic energy EKIN   =         3.624796
  kin. lattice  EKIN_LAT=         0.000000  (temperature  445.12 K)
  nose potential ES     =        -2.854515
  nose kinetic   EPS    =         0.920559
  ---------------------------------------------------
  total energy   ETOTAL =      -354.809497 eV

  maximum distance moved by ions :      0.31E-02


 mean value of Nose-termostat <S>:    -0.583 mean value of <T> :   562.478
 mean temperature <T/S>/<1/S>  :   600.309

    WAVPRE:  cpu time    0.1431: real time    0.1432
    FEWALD:  cpu time    0.0044: real time    0.0044
    GENKIN:  cpu time    0.0006: real time    0.0006

 real space projection operators:
  total allocation   :       1726.44 KBytes
  max/ min on nodes  :        448.88        414.12

    ORTHCH:  cpu time    0.1077: real time    0.1078
 Prediction of Wavefunctions ALPHA= 2.008 BETA=-1.043
    POTLOK:  cpu time    0.0370: real time    0.0370
    EDDIAG:  cpu time    0.1669: real time    0.1670
 writing wavefunctions
     LOOP+:  cpu time    4.4063: real time    4.4103
    4ORBIT:  cpu time    0.0000: real time    0.0000

 total amount of memory used by VASP MPI-rank0    58343. kBytes
=======================================================================

   base      :      30000. kBytes
   nonlr-proj:       1041. kBytes
   fftplans  :       1760. kBytes
   grid      :       2147. kBytes
   one-center:         49. kBytes
   wavefun   :      23346. kBytes

  
  
 General timing and accounting informations for this job:
 ========================================================
  
                  Total CPU time used (sec):      453.395
                            User time (sec):      428.258
                          System time (sec):       25.137
                         Elapsed time (sec):      454.157
  
                   Maximum memory used (kb):       77904.
                   Average memory used (kb):           0.
  
                          Minor page faults:       598320
                          Major page faults:           40
                 Voluntary context switches:         1263
