si_2x2x2                                
           1
    10.861800    0.000000    0.000000
     0.000000   10.861800    0.000000
     0.000000    0.000000   10.861800
   Si
  64
Direct configuration=     1
   0.00000000  0.00000000  0.00000000
   0.50000000  0.00000000  0.00000000
   0.00000000  0.50000000  0.00000000
   0.50000000  0.50000000  0.00000000
   0.00000000  0.00000000  0.50000000
   0.50000000  0.00000000  0.50000000
   0.00000000  0.50000000  0.50000000
   0.50000000  0.50000000  0.50000000
   0.37500000  0.12500000  0.37500000
   0.87500000  0.12500000  0.37500000
   0.37500000  0.62500000  0.37500000
   0.87500000  0.62500000  0.37500000
   0.37500000  0.12500000  0.87500000
   0.87500000  0.12500000  0.87500000
   0.37500000  0.62500000  0.87500000
   0.87500000  0.62500000  0.87500000
   0.00000000  0.25000000  0.25000000
   0.50000000  0.25000000  0.25000000
   0.00000000  0.75000000  0.25000000
   0.50000000  0.75000000  0.25000000
   0.00000000  0.25000000  0.75000000
   0.50000000  0.25000000  0.75000000
   0.00000000  0.75000000  0.75000000
   0.50000000  0.75000000  0.75000000
   0.37500000  0.37500000  0.12500000
   0.87500000  0.37500000  0.12500000
   0.37500000  0.87500000  0.12500000
   0.87500000  0.87500000  0.12500000
   0.37500000  0.37500000  0.62500000
   0.87500000  0.37500000  0.62500000
   0.37500000  0.87500000  0.62500000
   0.87500000  0.87500000  0.62500000
   0.25000000  0.00000000  0.25000000
   0.75000000  0.00000000  0.25000000
   0.25000000  0.50000000  0.25000000
   0.75000000  0.50000000  0.25000000
   0.25000000  0.00000000  0.75000000
   0.75000000  0.00000000  0.75000000
   0.25000000  0.50000000  0.75000000
   0.75000000  0.50000000  0.75000000
   0.12500000  0.12500000  0.12500000
   0.62500000  0.12500000  0.12500000
   0.12500000  0.62500000  0.12500000
   0.62500000  0.62500000  0.12500000
   0.12500000  0.12500000  0.62500000
   0.62500000  0.12500000  0.62500000
   0.12500000  0.62500000  0.62500000
   0.62500000  0.62500000  0.62500000
   0.25000000  0.25000000  0.00000000
   0.75000000  0.25000000  0.00000000
   0.25000000  0.75000000  0.00000000
   0.75000000  0.75000000  0.00000000
   0.25000000  0.25000000  0.50000000
   0.75000000  0.25000000  0.50000000
   0.25000000  0.75000000  0.50000000
   0.75000000  0.75000000  0.50000000
   0.12500000  0.37500000  0.37500000
   0.62500000  0.37500000  0.37500000
   0.12500000  0.87500000  0.37500000
   0.62500000  0.87500000  0.37500000
   0.12500000  0.37500000  0.87500000
   0.62500000  0.37500000  0.87500000
   0.12500000  0.87500000  0.87500000
   0.62500000  0.87500000  0.87500000
si_2x2x2                                
           1
    10.861800    0.000000    0.000000
     0.000000   10.861800    0.000000
     0.000000    0.000000   10.861800
   Si
  64
Direct configuration=     2
  -0.00236602  0.00016148  0.00254701
   0.49920981  0.00204368  0.00219325
  -0.00199410  0.50040073  0.00142960
   0.50042964  0.50219232 -0.00150082
   0.00179328  0.00198775  0.50038673
   0.50075608  0.00125851  0.49862834
  -0.00318180  0.49934619  0.49960973
   0.49910331  0.50081951  0.50180438
   0.37645309  0.12210739  0.37563140
   0.87360543  0.12664675  0.37661609
   0.37544865  0.62395577  0.37540009
   0.87473463  0.62407545  0.37596334
   0.37515291  0.12568824  0.87445294
   0.87469845  0.12470702  0.87482224
   0.37599037  0.62591866  0.87512200
   0.87390336  0.62355054  0.87532406
   0.00076760  0.24954838  0.24855500
   0.50136929  0.24880991  0.24851706
  -0.00034551  0.74986845  0.24966946
   0.50075277  0.74990305  0.25080475
   0.00078052  0.25047536  0.74877615
   0.49991666  0.25037436  0.75057356
  -0.00062208  0.74941151  0.75019270
   0.50058104  0.75146679  0.74934089
   0.37611499  0.37635839  0.12368099
   0.87606722  0.37598813  0.12586248
   0.37530361  0.87354360  0.12577247
   0.87461819  0.87372489  0.12374064
   0.37338769  0.37530177  0.62458687
   0.87495417  0.37456011  0.62282694
   0.37609740  0.87310661  0.62482594
   0.87588017  0.87667927  0.62560846
   0.25041550 -0.00040086  0.24850060
   0.74968859  0.00047993  0.25118165
   0.25150359  0.50059623  0.24961187
   0.74856044  0.50096896  0.24811721
   0.25005513 -0.00123129  0.74964467
   0.75074477  0.00006263  0.75001892
   0.25016163  0.50132181  0.75242600
   0.75095977  0.50094526  0.74880339
   0.12446827  0.12571524  0.12599933
   0.62393241  0.12783619  0.12462570
   0.12607838  0.62324580  0.12398391
   0.62607107  0.62502085  0.12672454
   0.12569999  0.12454350  0.62308193
   0.62429599  0.12435226  0.62188576
   0.12473918  0.62400933  0.62444795
   0.62366913  0.62501913  0.62690933
   0.24955450  0.24952995 -0.00019199
   0.74939336  0.24964955  0.00044001
   0.24911995  0.74951159 -0.00031420
   0.74926121  0.75067739  0.00063784
   0.25137631  0.24891322  0.49980559
   0.75133461  0.24871746  0.50218106
   0.24874501  0.74933851  0.50062616
   0.74916146  0.75099841  0.50065579
   0.12476164  0.37414895  0.37461313
   0.62385309  0.37249056  0.37360064
   0.12558794  0.87473394  0.37553732
   0.62453662  0.87398825  0.37325521
   0.12646376  0.37337595  0.87592151
   0.62552586  0.37572353  0.87685092
   0.12555166  0.87508913  0.87529616
   0.62536837  0.87664811  0.87335735
si_2x2x2                                
           1
    10.861800    0.000000    0.000000
     0.000000   10.861800    0.000000
     0.000000    0.000000   10.861800
   Si
  64
Direct configuration=     3
  -0.00462913  0.00032270  0.00499953
   0.49843192  0.00401902  0.00430444
  -0.00388567  0.50074418  0.00276305
   0.50088613  0.50435844 -0.00291553
   0.00349847  0.00390533  0.50071499
   0.50150313  0.00234970  0.49728754
  -0.00621746  0.49868680  0.49920201
   0.49825683  0.50154951  0.50354407
   0.37786770  0.11932641  0.37617584
   0.87231997  0.12822359  0.37816686
   0.37589019  0.62297094  0.37582942
   0.87441111  0.62321369  0.37687078
   0.37528782  0.12632477  0.87392895
   0.87442868  0.12444904  0.87466409
   0.37697184  0.62688263  0.87523260
   0.87283417  0.62217666  0.87566610
   0.00148043  0.24912214  0.24720007
   0.50260668  0.24765012  0.24707902
  -0.00064852  0.74969631  0.24935571
   0.50144680  0.74975531  0.25158378
   0.00156486  0.25092383  0.74756283
   0.49986350  0.25076207  0.75108430
  -0.00121585  0.74883152  0.75039283
   0.50115862  0.75290203  0.74874579
   0.37723514  0.37768149  0.12236069
   0.87706128  0.37692901  0.12669540
   0.37560592  0.87210722  0.12648919
   0.87421169  0.87250602  0.12258610
   0.37180968  0.37561275  0.62424523
   0.87491058  0.37414092  0.62076829
   0.37716686  0.87130736  0.62459642
   0.87677147  0.87832538  0.62617283
   0.25081770 -0.00082377  0.24706440
   0.74938175  0.00096486  0.25227354
   0.25297991  0.50113549  0.24923818
   0.74717106  0.50185770  0.24635577
   0.25013716 -0.00241793  0.74928105
   0.75144088  0.00017205  0.74998161
   0.25031552  0.50260156  0.75479089
   0.75187737  0.50181330  0.74762900
   0.12395134  0.12636485  0.12693345
   0.62294932  0.13053460  0.12426633
   0.12709697  0.62155049  0.12300872
   0.62704752  0.62508924  0.12834301
   0.12642518  0.12410966  0.62125793
   0.62360794  0.12371423  0.61894171
   0.12441074  0.62299556  0.62393015
   0.62238504  0.62505609  0.62875231
   0.24916393  0.24906273 -0.00034108
   0.74886739  0.24935778  0.00087045
   0.24830012  0.74903716 -0.00061279
   0.74850969  0.75130899  0.00119724
   0.25273655  0.24783585  0.49956100
   0.75256962  0.24750043  0.50426386
   0.24754412  0.74865789  0.50122452
   0.74834835  0.75196316  0.50132494
   0.12453257  0.37333578  0.37423960
   0.62276835  0.37008054  0.37230854
   0.12613142  0.87450451  0.37604498
   0.62409371  0.87304811  0.37159818
   0.12781207  0.37185762  0.87684710
   0.62605462  0.37645970  0.87860846
   0.12600211  0.87520701  0.87562618
   0.62568513  0.87830786  0.87183755
si_2x2x2                                
           1
    10.861800    0.000000    0.000000
     0.000000   10.861800    0.000000
     0.000000    0.000000   10.861800
   Si
  64
Direct configuration=     4
  -0.00668912  0.00049336  0.00726167
   0.49767648  0.00585862  0.00624687
  -0.00558455  0.50099353  0.00392860
   0.50140089  0.50647557 -0.00417444
   0.00503530  0.00567889  0.50092512
   0.50224106  0.00311404  0.49600284
  -0.00895039  0.49801116  0.49875385
   0.49749112  0.50212387  0.50516829
   0.37918505  0.11676983  0.37651018
   0.87122963  0.12966940  0.37958576
   0.37631165  0.62211561  0.37630538
   0.87395247  0.62248069  0.37766193
   0.37537275  0.12687069  0.87344238
   0.87420114  0.12426620  0.87452511
   0.37792104  0.62796037  0.87531079
   0.87180041  0.62096569  0.87603817
   0.00207944  0.24874981  0.24602886
   0.50356412  0.24657081  0.24574215
  -0.00087266  0.74945031  0.24907543
   0.50204949  0.74950130  0.25234563
   0.00235940  0.25132927  0.74637141
   0.49986468  0.25117683  0.75147719
  -0.00177683  0.74824794  0.75061483
   0.50172465  0.75427619  0.74826560
   0.37834510  0.37892583  0.12105058
   0.87791044  0.37777515  0.12749606
   0.37589213  0.87069990  0.12711151
   0.87376081  0.87137245  0.12164274
   0.37028496  0.37595262  0.62403872
   0.87486598  0.37374882  0.61894203
   0.37815973  0.86967959  0.62426556
   0.87768166  0.87990774  0.62666255
   0.25120363 -0.00128476  0.24574334
   0.74907752  0.00147651  0.25323124
   0.25440409  0.50156054  0.24888697
   0.74590279  0.50256212  0.24484291
   0.25027683 -0.00356921  0.74888443
   0.75206650  0.00037092  0.74983903
   0.25045242  0.50379265  0.75703417
   0.75271640  0.50251982  0.74649786
   0.12348388  0.12689219  0.12774543
   0.62215773  0.13296873  0.12392916
   0.12800837  0.61997133  0.12212139
   0.62786212  0.62527167  0.12976712
   0.12721977  0.12373117  0.61962426
   0.62297277  0.12311965  0.61633078
   0.12396469  0.62195306  0.62348645
   0.62121233  0.62513239  0.63047561
   0.24888116  0.24859881 -0.00040678
   0.74847919  0.24917070  0.00129128
   0.24755882  0.74856827 -0.00089359
   0.74770314  0.75187977  0.00163408
   0.25406272  0.24677561  0.49922265
   0.75360199  0.24641784  0.50615885
   0.24643901  0.74792852  0.50177129
   0.74756380  0.75288927  0.50202458
   0.12434329  0.37258903  0.37388942
   0.62181149  0.36785560  0.37119979
   0.12660616  0.87433640  0.37648152
   0.62371185  0.87223487  0.37008905
   0.12895835  0.37051970  0.87775967
   0.62659696  0.37721217  0.88018780
   0.12628647  0.87536766  0.87600138
   0.62592573  0.87997493  0.87052549
si_2x2x2                                
           1
    10.861800    0.000000    0.000000
     0.000000   10.861800    0.000000
     0.000000    0.000000   10.861800
   Si
  64
Direct configuration=     5
  -0.00846242  0.00069383  0.00924584
   0.49695436  0.00751321  0.00796087
  -0.00701328  0.50112470  0.00486330
   0.50199575  0.50851460 -0.00521798
   0.00633411  0.00725393  0.50094991
   0.50297335  0.00340753  0.49480735
  -0.01124399  0.49732235  0.49824445
   0.49683840  0.50247946  0.50663082
   0.38032915  0.11454502  0.37654247
   0.87042742  0.13093182  0.38079746
   0.37669975  0.62143651  0.37683707
   0.87330511  0.62194063  0.37827858
   0.37538360  0.12729800  0.87300574
   0.87402725  0.12419309  0.87440688
   0.37881221  0.62919652  0.87533946
   0.87082371  0.61997744  0.87644747
   0.00250289  0.24846441  0.24511900
   0.50410708  0.24563061  0.24457324
  -0.00099622  0.74910076  0.24883685
   0.50251904  0.74910452  0.25306706
   0.00316152  0.25167425  0.74522132
   0.49993524  0.25165328  0.75174389
  -0.00229616  0.74765626  0.75086339
   0.50227879  0.75556191  0.74795958
   0.37943469  0.38005111  0.11976396
   0.87855287  0.37847773  0.12824920
   0.37615785  0.86932672  0.12760956
   0.87324286  0.87034712  0.12100049
   0.36884255  0.37632087  0.62402676
   0.87481308  0.37339321  0.61746504
   0.37903007  0.86829685  0.62379817
   0.87862387  0.88138500  0.62705403
   0.25156671 -0.00179737  0.24458810
   0.74877304  0.00201483  0.25400322
   0.25575126  0.50182680  0.24856400
   0.74482992  0.50298988  0.24370153
   0.25049103 -0.00465665  0.74845367
   0.75261953  0.00070765  0.74954955
   0.25054650  0.50484987  0.75909667
   0.75345523  0.50300068  0.74543317
   0.12310066  0.12725426  0.12839587
   0.62164700  0.13502099  0.12361202
   0.12877018  0.61854600  0.12136118
   0.62844401  0.62563514  0.13090240
   0.12812118  0.12343934  0.61827246
   0.62241834  0.12259873  0.61418793
   0.12336646  0.62087511  0.62315791
   0.62019521  0.62527218  0.63202560
   0.24872985  0.24810782 -0.00036181
   0.74828283  0.24912080  0.00169945
   0.24693087  0.74811186 -0.00114957
   0.74681400  0.75236383  0.00188303
   0.25534073  0.24573965  0.49875855
   0.75434025  0.24551702  0.50778660
   0.24548051  0.74714431  0.50223826
   0.74682934  0.75375583  0.50275901
   0.12421952  0.37192417  0.37356372
   0.62102369  0.36589161  0.37034763
   0.12698760  0.87424750  0.37681544
   0.62343078  0.87159448  0.36879433
   0.12982650  0.36942844  0.87862190
   0.62716362  0.37798089  0.88151185
   0.12635098  0.87557464  0.87643335
   0.62605818  0.88164647  0.86950175
si_2x2x2                                
           1
    10.861800    0.000000    0.000000
     0.000000   10.861800    0.000000
     0.000000    0.000000   10.861800
   Si
  64
Direct configuration=     6
  -0.00990091  0.00094285  0.01090136
   0.49627317  0.00895640  0.00940316
  -0.00810875  0.50112089  0.00553371
   0.50269718  0.51045443 -0.00600104
   0.00733875  0.00856636  0.50074932
   0.50369349  0.00311687  0.49371802
  -0.01300904  0.49662193  0.49766080
   0.49631301  0.50258222  0.50789373
   0.38124151  0.11271945  0.37620329
   0.86995763  0.13197362  0.38175709
   0.37704189  0.62097014  0.37743164
   0.87242718  0.62164107  0.37868224
   0.37530864  0.12758381  0.87261385
   0.87392173  0.12425745  0.87431490
   0.37962956  0.63062874  0.87529231
   0.86991357  0.61926610  0.87689377
   0.00271095  0.24829799  0.24453908
   0.50414054  0.24487496  0.24362288
  -0.00101753  0.74862601  0.24863620
   0.50280932  0.74852971  0.25373031
   0.00397376  0.25194110  0.74412012
   0.50008483  0.25220881  0.75186044
  -0.00275979  0.74707044  0.75114490
   0.50282434  0.75674011  0.74787428
   0.38049158  0.38103685  0.11850151
   0.87894298  0.37900332  0.12895000
   0.37639743  0.86800251  0.12795917
   0.87265431  0.86944925  0.12072673
   0.36750185  0.37671357  0.62424920
   0.87475038  0.37307485  0.61642655
   0.37974332  0.86720228  0.62315785
   0.87959675  0.88271735  0.62732430
   0.25190205 -0.00237137  0.24364558
   0.74847536  0.00258459  0.25455800
   0.25699592  0.50190096  0.24827815
   0.74400085  0.50307445  0.24302126
   0.25080238 -0.00566070  0.74798227
   0.75308272  0.00120655  0.74909373
   0.25059158  0.50574105  0.76092777
   0.75407164  0.50320692  0.74445228
   0.12283493  0.12740531  0.12884745
   0.62147648  0.13658863  0.12329558
   0.12935299  0.61731555  0.12075848
   0.62873268  0.62622059  0.13167788
   0.12916869  0.12326663  0.61726891
   0.62197012  0.12217414  0.61262862
   0.12259816  0.61975827  0.62297296
   0.61936770  0.62547818  0.63336512
   0.24874112  0.24757809 -0.00017932
   0.74832070  0.24924679  0.00208093
   0.24644739  0.74768191 -0.00137006
   0.74583146  0.75274419  0.00190148
   0.25656187  0.24474661  0.49814780
   0.75472142  0.24482794  0.50910748
   0.24469861  0.74629918  0.50260871
   0.74616017  0.75454672  0.50352964
   0.12418382  0.37134623  0.37326109
   0.62043809  0.36424131  0.36980372
   0.12726615  0.87424978  0.37702171
   0.62329167  0.87116758  0.36776597
   0.13035847  0.36863385  0.87940894
   0.62775122  0.37876601  0.88251609
   0.12615657  0.87582982  0.87692245
   0.62606335  0.88331278  0.86882768
si_2x2x2                                
           1
    10.861800    0.000000    0.000000
     0.000000   10.861800    0.000000
     0.000000    0.000000   10.861800
   Si
  64
Direct configuration=     7
  -0.01096593  0.00125788  0.01219005
   0.49562373  0.01015792  0.01053726
  -0.00882360  0.50098179  0.00590903
   0.50352171  0.51228480 -0.00650380
   0.00801721  0.00958314  0.50030393
   0.50439580  0.00217812  0.49275905
  -0.01419109  0.49592900  0.49698097
   0.49592780  0.50241991  0.50895234
   0.38187904  0.11134346  0.37544833
   0.86985933  0.13276171  0.38242094
   0.37733207  0.62072850  0.37809182
   0.87130222  0.62161703  0.37884503
   0.37514725  0.12770927  0.87226769
   0.87389759  0.12448003  0.87424939
   0.38036290  0.63227653  0.87515515
   0.86906723  0.61885708  0.87736541
   0.00267542  0.24827317  0.24433376
   0.50360121  0.24434076  0.24293084
  -0.00093578  0.74800415  0.24848128
   0.50288775  0.74775501  0.25433517
   0.00479536  0.25211812  0.74308441
   0.50031637  0.25285039  0.75181725
  -0.00316630  0.74650418  0.75146162
   0.50336553  0.75780608  0.74803952
   0.38150813  0.38185744  0.11725933
   0.87904707  0.37931929  0.12960459
   0.37660818  0.86673919  0.12813691
   0.87197963  0.86868256  0.12085867
   0.36627273  0.37712788  0.62472618
   0.87467466  0.37278231  0.61588876
   0.38027706  0.86641198  0.62231655
   0.88060323  0.88387550  0.62745443
   0.25219966 -0.00301461  0.24294358
   0.74819534  0.00319122  0.25487857
   0.25812136  0.50175944  0.24803317
   0.74344568  0.50277335  0.24285786
   0.25121602 -0.00656486  0.74747616
   0.75343887  0.00188587  0.74845297
   0.25057237  0.50644607  0.76250483
   0.75455251  0.50312522  0.74356984
   0.12270814  0.12731073  0.12908249
   0.62169321  0.13761147  0.12296710
   0.12974236  0.61629351  0.12033335
   0.62870295  0.62704288  0.13205344
   0.13038576  0.12323408  0.61666406
   0.62162888  0.12185275  0.61172508
   0.12164347  0.61859738  0.62295609
   0.61876376  0.62574620  0.63446797
   0.24893341  0.24701688  0.00015544
   0.74862633  0.24957872  0.00241956
   0.24612171  0.74729219 -0.00154520
   0.74474614  0.75302126  0.00166156
   0.25772243  0.24382168  0.49738097
   0.75470355  0.24436686  0.51008612
   0.24410519  0.74538984  0.50287375
   0.74556776  0.75525749  0.50433312
   0.12425866  0.37086273  0.37297921
   0.62006465  0.36293301  0.36959500
   0.12743493  0.87434298  0.37708061
   0.62333097  0.87097341  0.36703681
   0.13052423  0.36816252  0.88011530
   0.62836432  0.37956070  0.88316544
   0.12568718  0.87613385  0.87746622
   0.62593472  0.88498098  0.86852767
si_2x2x2                                
           1
    10.861800    0.000000    0.000000
     0.000000   10.861800    0.000000
     0.000000    0.000000   10.861800
   Si
  64
Direct configuration=     8
  -0.01166427  0.00163113  0.01309338
   0.49498886  0.01110164  0.01135373
  -0.00914293  0.50071277  0.00597788
   0.50446567  0.51400553 -0.00671944
   0.00835670  0.01029887  0.49960268
   0.50507383  0.00058872  0.49194038
  -0.01475472  0.49525121  0.49618437
   0.49568964  0.50198119  0.50979458
   0.38222857  0.11044180  0.37426214
   0.87015356  0.13329287  0.38276828
   0.37755812  0.62069872  0.37881630
   0.86993061  0.62188235  0.37876031
   0.37490588  0.12766727  0.87195708
   0.87396886  0.12487177  0.87420567
   0.38100280  0.63413219  0.87492133
   0.86828462  0.61876209  0.87785059
   0.00239235  0.24839399  0.24452281
   0.50247817  0.24405595  0.24251312
  -0.00074684  0.74722743  0.24837374
   0.50273266  0.74679524  0.25488932
   0.00562516  0.25220228  0.74213930
   0.50062218  0.25357060  0.75161931
  -0.00351675  0.74596925  0.75181821
   0.50388913  0.75877232  0.74845651
   0.38247889  0.38249029  0.11605202
   0.87884931  0.37940683  0.13021212
   0.37678997  0.86555353  0.12812593
   0.87121561  0.86805242  0.12141879
   0.36517022  0.37754763  0.62545420
   0.87459314  0.37251869  0.61587948
   0.38061611  0.86592301  0.62126870
   0.88163894  0.88482996  0.62743450
   0.25244869 -0.00373992  0.24249349
   0.74795073  0.00383466  0.25494798
   0.25911863  0.50139076  0.24782493
   0.74314986  0.50208772  0.24322298
   0.25173577 -0.00736291  0.74693986
   0.75368108  0.00275264  0.74762649
   0.25047454  0.50695132  0.76380532
   0.75489285  0.50275390  0.74280654
   0.12272734  0.12695721  0.12909617
   0.62231524  0.13805647  0.12263999
   0.12994662  0.61548887  0.12009879
   0.62835762  0.62807389  0.13202455
   0.13179163  0.12334637  0.61647011
   0.62138028  0.12163262  0.61151223
   0.12050602  0.61738801  0.62312685
   0.61840212  0.62607058  0.63531770
   0.24931244  0.24643487  0.00064581
   0.74922100  0.25013913  0.00270454
   0.24594956  0.74695567 -0.00167087
   0.74356880  0.75320432  0.00114851
   0.25882122  0.24298022  0.49645530
   0.75426484  0.24414550  0.51070342
   0.24369846  0.74441749  0.50303599
   0.74506321  0.75588854  0.50517128
   0.12446194  0.37047763  0.37272019
   0.61990130  0.36199853  0.36973795
   0.12749142  0.87451579  0.37698196
   0.62356668  0.87100427  0.36661412
   0.13031619  0.36804024  0.88074021
   0.62899810  0.38035279  0.88342498
   0.12493714  0.87648575  0.87805402
   0.62567463  0.88664753  0.86863130
si_2x2x2                                
           1
    10.861800    0.000000    0.000000
     0.000000   10.861800    0.000000
     0.000000    0.000000   10.861800
   Si
  64
Direct configuration=     9
  -0.01200269  0.00205662  0.01360697
   0.49437352  0.01176736  0.01183342
  -0.00907905  0.50030407  0.00574728
   0.50551098  0.51560693 -0.00666656
   0.00837833  0.01071680  0.49866375
   0.50569639 -0.00159503  0.49126703
  -0.01470768  0.49460725  0.49526023
   0.49560284  0.50127358  0.51042113
   0.38230915  0.10999638  0.37266055
   0.87082672  0.13356040  0.38278451
   0.37770223  0.62085434  0.37960112
   0.86832783  0.62243114  0.37844413
   0.37459080  0.12747031  0.87166774
   0.87414794  0.12544334  0.87417073
   0.38153264  0.63617733  0.87459773
   0.86755866  0.61898342  0.87833209
   0.00188324  0.24864583  0.24510048
   0.50080999  0.24402254  0.24234419
  -0.00045449  0.74630232  0.24832421
   0.50233680  0.74567178  0.25539401
   0.00646313  0.25218287  0.74131471
   0.50098898  0.25436158  0.75127746
  -0.00381203  0.74547721  0.75221450
   0.50439073  0.75966312  0.74910937
   0.38339438  0.38292980  0.11488539
   0.87835250  0.37926664  0.13077245
   0.37694987  0.86444898  0.12793402
   0.87038005  0.86756111  0.12239318
   0.36419677  0.37796221  0.62642558
   0.87452250  0.37227695  0.61639528
   0.38075904  0.86571580  0.62002699
   0.88268641  0.88555575  0.62726623
   0.25264095 -0.00454972  0.24229366
   0.74775906  0.00450930  0.25476520
   0.25997417  0.50079605  0.24765510
   0.74307789  0.50105422  0.24409777
   0.25234967 -0.00804821  0.74638915
   0.75380741  0.00379985  0.74663381
   0.25028976  0.50725515  0.76482003
   0.75508983  0.50210716  0.74219014
   0.12288867  0.12634967  0.12891090
   0.62332043  0.13792918  0.12234888
   0.12996985  0.61490321  0.12005769
   0.62774084  0.62926451  0.13162306
   0.13338078  0.12357985  0.61667528
   0.62120140  0.12150515  0.61199080
   0.11920882  0.61614567  0.62349681
   0.61829815  0.62643437  0.63589631
   0.24987069  0.24585744  0.00127366
   0.75010767  0.25093119  0.00292819
   0.24592085  0.74668851 -0.00174638
   0.74230957  0.75332427  0.00036987
   0.25984681  0.24224646  0.49537826
   0.75340971  0.24416760  0.51093449
   0.24345925  0.74338828  0.50309572
   0.74466072  0.75643701  0.50603749
   0.12480806  0.37018796  0.37247876
   0.61993221  0.36144460  0.37023434
   0.12743370  0.87474627  0.37672584
   0.62401487  0.87123283  0.36648713
   0.12974464  0.36826737  0.88128185
   0.62965341  0.38113676  0.88329182
   0.12391357  0.87688258  0.87867495
   0.62530007  0.88832677  0.86913956
si_2x2x2                                
           1
    10.861800    0.000000    0.000000
     0.000000   10.861800    0.000000
     0.000000    0.000000   10.861800
   Si
  64
Direct configuration=    10
  -0.01201406  0.00250808  0.01373193
   0.49379075  0.01213963  0.01197658
  -0.00864573  0.49975589  0.00522700
   0.50663288  0.51707805 -0.00638945
   0.00813165  0.01085515  0.49752761
   0.50623241 -0.00427138  0.49073120
  -0.01408458  0.49400660  0.49420584
   0.49567546  0.50031363  0.51083948
   0.38216369  0.10996018  0.37070407
   0.87183340  0.13357855  0.38247439
   0.37774864  0.62115577  0.38043861
   0.86652120  0.62323219  0.37793428
   0.37422392  0.12712672  0.87138233
   0.87444474  0.12619624  0.87413035
   0.38194089  0.63835916  0.87419539
   0.86687508  0.61949885  0.87879366
   0.00118755  0.24899894  0.24603314
   0.49869024  0.24423708  0.24237981
  -0.00006766  0.74523763  0.24833609
   0.50172209  0.74443685  0.25586997
   0.00731078  0.25206165  0.74063943
   0.50139621  0.25521278  0.75081372
  -0.00405079  0.74504552  0.75265659
   0.50486810  0.76051040  0.74997261
   0.38423677  0.38317227  0.11376914
   0.87758943  0.37891703  0.13128067
   0.37709548  0.86343377  0.12757027
   0.86947734  0.86721942  0.12375671
   0.36336875  0.37835671  0.62761825
   0.87447471  0.37204349  0.61739136
   0.38070694  0.86575510  0.61861278
   0.88373406  0.88604009  0.62695776
   0.25276304 -0.00544652  0.24232529
   0.74764113  0.00520693  0.25433536
   0.26068245  0.49998745  0.24751343
   0.74315977  0.49973182  0.24543704
   0.25303758 -0.00862498  0.74584078
   0.75381703  0.00500783  0.74551421
   0.25002113  0.50737623  0.76556219
   0.75514819  0.50121561  0.74174645
   0.12316977  0.12551318  0.12856236
   0.62464994  0.13727634  0.12213465
   0.12982604  0.61453446  0.12021922
   0.62691682  0.63055296  0.13090133
   0.13512909  0.12388815  0.61723856
   0.62105422  0.12144969  0.61312613
   0.11777860  0.61489613  0.62406114
   0.61844470  0.62681778  0.63620206
   0.25058455  0.24530321  0.00200875
   0.75127935  0.25196093  0.00307425
   0.24600974  0.74650883 -0.00177049
   0.74098971  0.75342030 -0.00066343
   0.26078679  0.24164792  0.49417665
   0.75216365  0.24443575  0.51076377
   0.24335559  0.74231786  0.50306508
   0.74436770  0.75691215  0.50692280
   0.12531500  0.36999605  0.37224971
   0.62011799  0.36125709  0.37107985
   0.12727042  0.87500496  0.37631977
   0.62467202  0.87161250  0.36662256
   0.12882868  0.36881038  0.88175040
   0.63033062  0.38191716  0.88276774
   0.12264674  0.87731598  0.87930812
   0.62483163  0.89002387  0.87004271
si_2x2x2                                
           1
    10.861800    0.000000    0.000000
     0.000000   10.861800    0.000000
     0.000000    0.000000   10.861800
   Si
  64
Direct configuration=    11
  -0.01173870  0.00294409  0.01347930
   0.49325359  0.01222054  0.01179110
  -0.00788380  0.49907704  0.00444264
   0.50778809  0.51840833 -0.00594198
   0.00768653  0.01074594  0.49625519
   0.50664210 -0.00729339  0.49032908
  -0.01295593  0.49345533  0.49302598
   0.49590695  0.49913334  0.51106373
   0.38184593  0.11026951  0.36847003
   0.87310256  0.13337049  0.38186139
   0.37768931  0.62153817  0.38131917
   0.86456687  0.62425209  0.37727381
   0.37382039  0.12665907  0.87108627
   0.87487258  0.12713090  0.87407322
   0.38221935  0.64060695  0.87372642
   0.86622496  0.62027189  0.87921465
   0.00036567  0.24942274  0.24726297
   0.49625566  0.24468237  0.24256211
   0.00039071  0.74405310  0.24841711
   0.50091658  0.74315593  0.25633428
   0.00816449  0.25184181  0.74014883
   0.50181084  0.25610177  0.75026219
  -0.00423792  0.74469464  0.75314685
   0.50531863  0.76135465  0.75099886
   0.38499979  0.38322558  0.11271166
   0.87661071  0.37838859  0.13172382
   0.37722143  0.86252185  0.12704333
   0.86852596  0.86703076  0.12545150
   0.36269472  0.37870277  0.62899477
   0.87446940  0.37180640  0.61878726
   0.38047021  0.86598967  0.61707319
   0.88474954  0.88626795  0.62652096
   0.25280673 -0.00643286  0.24256073
   0.74761982  0.00591498  0.25367864
   0.26124161  0.49898534  0.24738874
   0.74331542  0.49820408  0.24716258
   0.25378121 -0.00911075  0.74531455
   0.75372787  0.00635237  0.74430861
   0.24966685  0.50734112  0.76604133
   0.75507290  0.50013389  0.74150381
   0.12354829  0.12448445  0.12810694
   0.62622414  0.13617131  0.12204152
   0.12953870  0.61436817  0.12058507
   0.62597282  0.63184688  0.12995213
   0.13698274  0.12423056  0.61809935
   0.62088503  0.12144343  0.61485435
   0.11625148  0.61366259  0.62480518
   0.61883664  0.62720690  0.63623249
   0.25142754  0.24481261  0.00280951
   0.75269410  0.25321213  0.00312107
   0.24617827  0.74643539 -0.00174328
   0.73965532  0.75354101 -0.00190853
   0.26164614  0.24120659  0.49287856
   0.75057715  0.24492745  0.51017627
   0.24333944  0.74122473  0.50295697
   0.74420717  0.75731741  0.50781800
   0.12600243  0.36989816  0.37203258
   0.62040840  0.36141434  0.37226103
   0.12701144  0.87524964  0.37578347
   0.62553907  0.87209233  0.36697844
   0.12759500  0.36962429  0.88216798
   0.63102138  0.38268218  0.88187720
   0.12117402  0.87777400  0.87993442
   0.62428371  0.89175441  0.87131057
si_2x2x2                                
           1
    10.861800    0.000000    0.000000
     0.000000   10.861800    0.000000
     0.000000    0.000000   10.861800
   Si
  64
Direct configuration=    12
  -0.01123860  0.00332535  0.01286219
   0.49277645  0.01201075  0.01129638
  -0.00686298  0.49828498  0.00343994
   0.50892189  0.51957407 -0.00540461
   0.00712261  0.01042803  0.49492166
   0.50689395 -0.01047241  0.49005918
  -0.01141388  0.49295717  0.49173873
   0.49629210  0.49777816  0.51111332
   0.38140380  0.11084453  0.36604683
   0.87454477  0.13297134  0.38099451
   0.37752114  0.62192866  0.38223136
   0.86254717  0.62543161  0.37652119
   0.37340616  0.12609679  0.87076372
   0.87543508  0.12824391  0.87398092
   0.38234819  0.64282797  0.87322260
   0.86561242  0.62126077  0.87957852
  -0.00051154  0.24988113  0.24871696
   0.49367627  0.24534190  0.24283226
   0.00088974  0.74279077  0.24857302
   0.49995918  0.74189957  0.25679540