  64  64   0   0
  0.2002283E+02  0.1086180E-08  0.1086180E-08  0.1086180E-08  0.3000000E-14
   600.00000000000000     
  CAR 
 si_2x2x2                                
      9.80943405     -7.18816781  301      6.11517624      1.00000000
     -7.188  0.0000E+00  0.0000E+00
     -7.132  0.0000E+00  0.0000E+00
     -7.075  0.0000E+00  0.0000E+00
     -7.018  0.0000E+00  0.0000E+00
     -6.962  0.0000E+00  0.0000E+00
     -6.905  0.0000E+00  0.0000E+00
     -6.848  0.0000E+00  0.0000E+00
     -6.792  0.0000E+00  0.0000E+00
     -6.735  0.1535E-12  0.8666E-14
     -6.678  0.6042E-10  0.3420E-11
     -6.622  0.1272E-07  0.7218E-09
     -6.565  0.1434E-05  0.8170E-07
     -6.508  0.8680E-04  0.4982E-05
     -6.452  0.2828E-02  0.1646E-03
     -6.395  0.4975E-01  0.2973E-02
     -6.338  0.4745E+00  0.2975E-01
     -6.282  0.2462E+01  0.1687E+00
     -6.225  0.6972E+01  0.5621E+00
     -6.168  0.1080E+02  0.1171E+01
     -6.112  0.9172E+01  0.1689E+01
     -6.055  0.4268E+01  0.1929E+01
     -5.998  0.1088E+01  0.1991E+01
     -5.942  0.1516E+00  0.1999E+01
     -5.885  0.1153E-01  0.2000E+01
     -5.828  0.4771E-03  0.2000E+01
     -5.772  0.1077E-04  0.2000E+01
     -5.715  0.3140E-05  0.2000E+01
     -5.658  0.1136E-03  0.2000E+01
     -5.602  0.2436E-02  0.2000E+01
     -5.545  0.3016E-01  0.2002E+01
     -5.488  0.2213E+00  0.2014E+01
     -5.432  0.1011E+01  0.2071E+01
     -5.375  0.3143E+01  0.2248E+01
     -5.318  0.7460E+01  0.2668E+01
     -5.262  0.1436E+02  0.3477E+01
     -5.205  0.2217E+02  0.4728E+01
     -5.148  0.2789E+02  0.6303E+01
     -5.092  0.3067E+02  0.8035E+01
     -5.035  0.3103E+02  0.9786E+01
     -4.978  0.2807E+02  0.1137E+02
     -4.922  0.2127E+02  0.1257E+02
     -4.865  0.1311E+02  0.1331E+02
     -4.809  0.6915E+01  0.1370E+02
     -4.752  0.3388E+01  0.1389E+02
     -4.695  0.1456E+01  0.1397E+02
     -4.639  0.5047E+00  0.1400E+02
     -4.582  0.4254E+00  0.1402E+02
     -4.525  0.1352E+01  0.1410E+02
     -4.469  0.3728E+01  0.1431E+02
     -4.412  0.8377E+01  0.1478E+02
     -4.355  0.1650E+02  0.1571E+02
     -4.299  0.2763E+02  0.1727E+02
     -4.242  0.3864E+02  0.1945E+02
     -4.185  0.4684E+02  0.2209E+02
     -4.129  0.5109E+02  0.2497E+02
     -4.072  0.5086E+02  0.2785E+02
     -4.015  0.4715E+02  0.3051E+02
     -3.959  0.4255E+02  0.3291E+02
     -3.902  0.3919E+02  0.3512E+02
     -3.845  0.3754E+02  0.3724E+02
     -3.789  0.3653E+02  0.3930E+02
     -3.732  0.3399E+02  0.4122E+02
     -3.675  0.2889E+02  0.4284E+02
     -3.619  0.2206E+02  0.4409E+02
     -3.562  0.1490E+02  0.4493E+02
     -3.505  0.8806E+01  0.4542E+02
     -3.449  0.4801E+01  0.4569E+02
     -3.392  0.2752E+01  0.4584E+02
     -3.335  0.1634E+01  0.4594E+02
     -3.279  0.8026E+00  0.4598E+02
     -3.222  0.2708E+00  0.4600E+02
     -3.165  0.5696E-01  0.4600E+02
     -3.109  0.7092E-02  0.4600E+02
     -3.052  0.5063E-03  0.4600E+02
     -2.995  0.2030E-04  0.4600E+02
     -2.939  0.4505E-06  0.4600E+02
     -2.882  0.5486E-08  0.4600E+02
     -2.825  0.3641E-10  0.4600E+02
     -2.769  0.3655E-11  0.4600E+02
     -2.712  0.7184E-09  0.4600E+02
     -2.655  0.7991E-07  0.4600E+02
     -2.599  0.4898E-05  0.4600E+02
     -2.542  0.1678E-03  0.4600E+02
     -2.485  0.3282E-02  0.4600E+02
     -2.429  0.3790E-01  0.4600E+02
     -2.372  0.2714E+00  0.4602E+02
     -2.316  0.1285E+01  0.4609E+02
     -2.259  0.4301E+01  0.4633E+02
     -2.202  0.1069E+02  0.4694E+02
     -2.146  0.2055E+02  0.4809E+02
     -2.089  0.3235E+02  0.4992E+02
     -2.032  0.4423E+02  0.5242E+02
     -1.976  0.5462E+02  0.5550E+02
     -1.919  0.6249E+02  0.5903E+02
     -1.862  0.6714E+02  0.6282E+02
     -1.806  0.6731E+02  0.6662E+02
     -1.749  0.6289E+02  0.7017E+02
     -1.692  0.5554E+02  0.7330E+02
     -1.636  0.4613E+02  0.7590E+02
     -1.579  0.3531E+02  0.7789E+02
     -1.522  0.2498E+02  0.7930E+02
     -1.466  0.1727E+02  0.8027E+02
     -1.409  0.1293E+02  0.8099E+02
     -1.352  0.1085E+02  0.8160E+02
     -1.296  0.1105E+02  0.8223E+02
     -1.239  0.1506E+02  0.8308E+02
     -1.182  0.2150E+02  0.8429E+02
     -1.126  0.2572E+02  0.8575E+02
     -1.069  0.2467E+02  0.8714E+02
     -1.012  0.1955E+02  0.8824E+02
     -0.956  0.1343E+02  0.8899E+02
     -0.899  0.8361E+01  0.8946E+02
     -0.842  0.4930E+01  0.8974E+02
     -0.786  0.2749E+01  0.8990E+02
     -0.729  0.1299E+01  0.8997E+02
     -0.672  0.4454E+00  0.8999E+02
     -0.616  0.9854E-01  0.9000E+02
     -0.559  0.1316E-01  0.9000E+02
     -0.502  0.1022E-02  0.9000E+02
     -0.446  0.4515E-04  0.9000E+02
     -0.389  0.1116E-05  0.9000E+02
     -0.332  0.1536E-07  0.9000E+02
     -0.276  0.1248E-07  0.9000E+02
     -0.219  0.1140E-05  0.9000E+02
     -0.162  0.5909E-04  0.9000E+02
     -0.106  0.1748E-02  0.9000E+02
     -0.049  0.3007E-01  0.9000E+02
      0.007  0.3073E+00  0.9002E+02
      0.064  0.1915E+01  0.9013E+02
      0.121  0.7518E+01  0.9055E+02
      0.177  0.1949E+02  0.9165E+02
      0.234  0.3575E+02  0.9367E+02
      0.291  0.5067E+02  0.9653E+02
      0.347  0.5999E+02  0.9992E+02
      0.404  0.6176E+02  0.1034E+03
      0.461  0.5609E+02  0.1066E+03
      0.517  0.4513E+02  0.1091E+03
      0.574  0.3223E+02  0.1109E+03
      0.631  0.2109E+02  0.1121E+03
      0.687  0.1358E+02  0.1129E+03
      0.744  0.9044E+01  0.1134E+03
      0.801  0.5892E+01  0.1137E+03
      0.857  0.3243E+01  0.1139E+03
      0.914  0.1311E+01  0.1140E+03
      0.971  0.3580E+00  0.1140E+03
      1.027  0.6274E-01  0.1140E+03
      1.084  0.6763E-02  0.1140E+03
      1.141  0.4318E-03  0.1140E+03
      1.197  0.1584E-04  0.1140E+03
      1.254  0.4754E-06  0.1140E+03
      1.311  0.8252E-05  0.1140E+03
      1.367  0.2558E-03  0.1140E+03
      1.424  0.4536E-02  0.1140E+03
      1.481  0.4805E-01  0.1140E+03
      1.537  0.3287E+00  0.1140E+03
      1.594  0.1618E+01  0.1141E+03
      1.651  0.6161E+01  0.1145E+03
      1.707  0.1801E+02  0.1155E+03
      1.764  0.3935E+02  0.1177E+03
      1.821  0.6525E+02  0.1214E+03
      1.877  0.8658E+02  0.1263E+03
      1.934  0.9841E+02  0.1318E+03
      1.991  0.1020E+03  0.1376E+03
      2.047  0.9917E+02  0.1432E+03
      2.104  0.9006E+02  0.1483E+03
      2.161  0.7638E+02  0.1526E+03
      2.217  0.6209E+02  0.1561E+03
      2.274  0.5208E+02  0.1590E+03
      2.330  0.4821E+02  0.1617E+03
      2.387  0.4728E+02  0.1644E+03
      2.444  0.4404E+02  0.1669E+03
      2.500  0.3687E+02  0.1690E+03
      2.557  0.2842E+02  0.1706E+03
      2.614  0.2098E+02  0.1717E+03
      2.670  0.1506E+02  0.1726E+03
      2.727  0.1056E+02  0.1732E+03
      2.784  0.7842E+01  0.1736E+03
      2.840  0.8629E+01  0.1741E+03
      2.897  0.1492E+02  0.1749E+03
      2.954  0.2521E+02  0.1764E+03
      3.010  0.3426E+02  0.1783E+03
      3.067  0.3734E+02  0.1804E+03
      3.124  0.3340E+02  0.1823E+03
      3.180  0.2555E+02  0.1837E+03
      3.237  0.1777E+02  0.1847E+03
      3.294  0.1160E+02  0.1854E+03
      3.350  0.6656E+01  0.1858E+03
      3.407  0.3011E+01  0.1859E+03
      3.464  0.9959E+00  0.1860E+03
      3.520  0.2343E+00  0.1860E+03
      3.577  0.1157E+00  0.1860E+03
      3.634  0.6771E+00  0.1860E+03
      3.690  0.3430E+01  0.1862E+03
      3.747  0.1126E+02  0.1869E+03
      3.804  0.2539E+02  0.1883E+03
      3.860  0.4184E+02  0.1907E+03
      3.917  0.5362E+02  0.1937E+03
      3.974  0.5732E+02  0.1969E+03
      4.030  0.5521E+02  0.2001E+03
      4.087  0.4956E+02  0.2028E+03
      4.144  0.4080E+02  0.2051E+03
      4.200  0.3127E+02  0.2069E+03
      4.257  0.2498E+02  0.2083E+03
      4.314  0.2481E+02  0.2097E+03
      4.370  0.3167E+02  0.2115E+03
      4.427  0.4349E+02  0.2140E+03
      4.484  0.5566E+02  0.2171E+03
      4.540  0.6483E+02  0.2208E+03
      4.597  0.7001E+02  0.2247E+03
      4.653  0.7076E+02  0.2287E+03
      4.710  0.6803E+02  0.2326E+03
      4.767  0.6302E+02  0.2361E+03
      4.823  0.5556E+02  0.2392E+03
      4.880  0.4587E+02  0.2418E+03
      4.937  0.3589E+02  0.2438E+03
      4.993  0.2778E+02  0.2454E+03
      5.050  0.2189E+02  0.2466E+03
      5.107  0.1719E+02  0.2476E+03
      5.163  0.1323E+02  0.2483E+03
      5.220  0.1018E+02  0.2489E+03
      5.277  0.7621E+01  0.2493E+03
      5.333  0.5078E+01  0.2496E+03
      5.390  0.2897E+01  0.2498E+03
      5.447  0.1588E+01  0.2499E+03
      5.503  0.1025E+01  0.2499E+03
      5.560  0.6934E+00  0.2500E+03
      5.617  0.5051E+00  0.2500E+03
      5.673  0.1047E+01  0.2501E+03
      5.730  0.3130E+01  0.2502E+03
      5.787  0.6955E+01  0.2506E+03
      5.843  0.1151E+02  0.2513E+03
      5.900  0.1530E+02  0.2522E+03
      5.957  0.1751E+02  0.2531E+03
      6.013  0.1766E+02  0.2541E+03
      6.070  0.1495E+02  0.2550E+03
      6.127  0.1045E+02  0.2556E+03
      6.183  0.7827E+01  0.2560E+03
      6.240  0.1017E+02  0.2566E+03
      6.297  0.1783E+02  0.2576E+03
      6.353  0.2776E+02  0.2592E+03
      6.410  0.3455E+02  0.2611E+03
      6.467  0.3478E+02  0.2631E+03
      6.523  0.2977E+02  0.2647E+03
      6.580  0.2286E+02  0.2660E+03
      6.637  0.1693E+02  0.2670E+03
      6.693  0.1479E+02  0.2678E+03
      6.750  0.1867E+02  0.2689E+03
      6.807  0.2793E+02  0.2705E+03
      6.863  0.3720E+02  0.2726E+03
      6.920  0.3975E+02  0.2748E+03
      6.977  0.3413E+02  0.2767E+03
      7.033  0.2486E+02  0.2781E+03
      7.090  0.1678E+02  0.2791E+03
      7.146  0.1266E+02  0.2798E+03
      7.203  0.1512E+02  0.2806E+03
      7.260  0.2416E+02  0.2820E+03
      7.316  0.3262E+02  0.2838E+03
      7.373  0.3191E+02  0.2856E+03
      7.430  0.2245E+02  0.2869E+03
      7.486  0.1187E+02  0.2876E+03
      7.543  0.5077E+01  0.2879E+03
      7.600  0.1862E+01  0.2880E+03
      7.656  0.5954E+00  0.2880E+03
      7.713  0.2937E+00  0.2880E+03
      7.770  0.5944E+00  0.2880E+03
      7.826  0.1521E+01  0.2881E+03
      7.883  0.3757E+01  0.2883E+03
      7.940  0.9260E+01  0.2889E+03
      7.996  0.2059E+02  0.2900E+03
      8.053  0.3761E+02  0.2921E+03
      8.110  0.5533E+02  0.2953E+03
      8.166  0.6696E+02  0.2991E+03
      8.223  0.6911E+02  0.3030E+03
      8.280  0.6373E+02  0.3066E+03
      8.336  0.5495E+02  0.3097E+03
      8.393  0.4548E+02  0.3122E+03
      8.450  0.3581E+02  0.3142E+03
      8.506  0.2584E+02  0.3157E+03
      8.563  0.1721E+02  0.3167E+03
      8.620  0.1234E+02  0.3174E+03
      8.676  0.1239E+02  0.3180E+03
      8.733  0.1679E+02  0.3190E+03
      8.790  0.2107E+02  0.3202E+03
      8.846  0.1847E+02  0.3212E+03
      8.903  0.9983E+01  0.3218E+03
      8.960  0.3153E+01  0.3220E+03
      9.016  0.5652E+00  0.3220E+03
      9.073  0.5648E-01  0.3220E+03
      9.130  0.3107E-02  0.3220E+03
      9.186  0.9326E-04  0.3220E+03
      9.243  0.1517E-05  0.3220E+03
      9.300  0.1330E-07  0.3220E+03
      9.356  0.6262E-10  0.3220E+03
      9.413  0.1577E-12  0.3220E+03
      9.469  0.0000E+00  0.3220E+03
      9.526  0.0000E+00  0.3220E+03
      9.583  0.0000E+00  0.3220E+03
      9.639  0.0000E+00  0.3220E+03
      9.696  0.0000E+00  0.3220E+03
      9.753  0.0000E+00  0.3220E+03
      9.809  0.0000E+00  0.3220E+03
      9.79872001     -7.18866693  301      6.13540555      1.00000000
     -7.189  0.0000E+00  0.0000E+00
     -7.132  0.0000E+00  0.0000E+00
     -7.075  0.0000E+00  0.0000E+00
     -7.019  0.0000E+00  0.0000E+00
     -6.962  0.0000E+00  0.0000E+00
     -6.906  0.0000E+00  0.0000E+00
     -6.849  0.0000E+00  0.0000E+00
     -6.792  0.0000E+00  0.0000E+00
     -6.736  0.1823E-14  0.1033E-15
     -6.679  0.7156E-12  0.4062E-13
     -6.622  0.1504E-09  0.8559E-11
     -6.566  0.1687E-07  0.9638E-09
     -6.509  0.1012E-05  0.5826E-07
     -6.453  0.3254E-04  0.1901E-05
     -6.396  0.5631E-03  0.3378E-04
     -6.339  0.5258E-02  0.3315E-03
     -6.283  0.2659E-01  0.1837E-02
     -6.226  0.7300E-01  0.5970E-02
     -6.169  0.1090E+00  0.1214E-01
     -6.113  0.8869E-01  0.1717E-01
     -6.056  0.3926E-01  0.1939E-01
     -6.000  0.9445E-02  0.1993E-01
     -5.943  0.1232E-02  0.1999E-01
     -5.886  0.8675E-04  0.2000E-01
     -5.830  0.3291E-05  0.2000E-01
     -5.773  0.6702E-07  0.2000E-01
     -5.716  0.7305E-09  0.2000E-01
     -5.660  0.2303E-10  0.2000E-01
     -5.603  0.2791E-08  0.2000E-01
     -5.547  0.2237E-06  0.2000E-01
     -5.490  0.9727E-05  0.2000E-01
     -5.433  0.2316E-03  0.2001E-01
     -5.377  0.3051E-02  0.2019E-01
     -5.320  0.2259E-01  0.2147E-01
     -5.263  0.9601E-01  0.2690E-01
     -5.207  0.2423E+00  0.4062E-01
     -5.150  0.3872E+00  0.6254E-01
     -5.094  0.4408E+00  0.8750E-01
     -5.037  0.4072E+00  0.1106E+00
     -4.980  0.3026E+00  0.1277E+00
     -4.924  0.1569E+00  0.1366E+00
     -4.867  0.5015E-01  0.1394E+00
     -4.810  0.9263E-02  0.1399E+00
     -4.754  0.9586E-03  0.1400E+00
     -4.697  0.5485E-04  0.1400E+00
     -4.641  0.7938E-05  0.1400E+00
     -4.584  0.1538E-03  0.1400E+00
     -4.527  0.2091E-02  0.1401E+00
     -4.471  0.1595E-01  0.1410E+00
     -4.414  0.7041E-01  0.1450E+00
     -4.357  0.1895E+00  0.1557E+00
     -4.301  0.3398E+00  0.1750E+00
     -4.244  0.4550E+00  0.2008E+00
     -4.188  0.4975E+00  0.2289E+00
     -4.131  0.4861E+00  0.2564E+00
     -4.074  0.5029E+00  0.2849E+00
     -4.018  0.5531E+00  0.3162E+00
     -3.961  0.5367E+00  0.3466E+00
     -3.904  0.4416E+00  0.3716E+00
     -3.848  0.3696E+00  0.3926E+00
     -3.791  0.3673E+00  0.4134E+00
     -3.735  0.3583E+00  0.4337E+00
     -3.678  0.2715E+00  0.4490E+00
     -3.621  0.1397E+00  0.4569E+00
     -3.565  0.4461E-01  0.4595E+00
     -3.508  0.8351E-02  0.4599E+00
     -3.451  0.8863E-03  0.4600E+00
     -3.395  0.5223E-04  0.4600E+00
     -3.338  0.1687E-05  0.4600E+00
     -3.282  0.2958E-07  0.4600E+00
     -3.225  0.2797E-09  0.4600E+00
     -3.168  0.1419E-11  0.4600E+00
     -3.112  0.3843E-14  0.4600E+00
     -3.055  0.0000E+00  0.4600E+00
     -2.998  0.0000E+00  0.4600E+00
     -2.942  0.0000E+00  0.4600E+00
     -2.885  0.0000E+00  0.4600E+00
     -2.829  0.0000E+00  0.4600E+00
     -2.772  0.0000E+00  0.4600E+00
     -2.715  0.9019E-15  0.4600E+00
     -2.659  0.3811E-12  0.4600E+00
     -2.602  0.8599E-10  0.4600E+00
     -2.545  0.1036E-07  0.4600E+00
     -2.489  0.6687E-06  0.4600E+00
     -2.432  0.2324E-04  0.4600E+00
     -2.376  0.4387E-03  0.4600E+00
     -2.319  0.4558E-02  0.4603E+00
     -2.262  0.2676E-01  0.4618E+00
     -2.206  0.9370E-01  0.4671E+00
     -2.149  0.2167E+00  0.4794E+00
     -2.092  0.3818E+00  0.5010E+00
     -2.036  0.5628E+00  0.5329E+00
     -1.979  0.7004E+00  0.5725E+00
     -1.923  0.7566E+00  0.6154E+00
     -1.866  0.7463E+00  0.6576E+00
     -1.809  0.6973E+00  0.6971E+00
     -1.753  0.6519E+00  0.7340E+00
     -1.696  0.5985E+00  0.7679E+00
     -1.639  0.4791E+00  0.7950E+00
     -1.583  0.2906E+00  0.8115E+00
     -1.526  0.1173E+00  0.8181E+00
     -1.470  0.2871E-01  0.8198E+00
     -1.413  0.4989E-02  0.8200E+00
     -1.356  0.9801E-02  0.8206E+00
     -1.300  0.5199E-01  0.8235E+00
     -1.243  0.1644E+00  0.8328E+00
     -1.186  0.3094E+00  0.8504E+00
     -1.130  0.3636E+00  0.8710E+00
     -1.073  0.2851E+00  0.8871E+00
     -1.017  0.1555E+00  0.8959E+00
     -0.960  0.5726E-01  0.8991E+00
     -0.903  0.1314E-01  0.8999E+00
     -0.847  0.1754E-02  0.9000E+00
     -0.790  0.1308E-03  0.9000E+00
     -0.733  0.5331E-05  0.9000E+00
     -0.677  0.1174E-06  0.9000E+00
     -0.620  0.1388E-08  0.9000E+00
     -0.564  0.8779E-11  0.9000E+00
     -0.507  0.2957E-13  0.9000E+00
     -0.450  0.7843E-16  0.9000E+00
     -0.394  0.2314E-14  0.9000E+00
     -0.337  0.8899E-12  0.9000E+00
     -0.280  0.1838E-09  0.9000E+00
     -0.224  0.2033E-07  0.9000E+00
     -0.167  0.1211E-05  0.9000E+00
     -0.111  0.3912E-04  0.9000E+00
     -0.054  0.6937E-03  0.9000E+00
      0.003  0.6875E-02  0.9004E+00
      0.059  0.3921E-01  0.9027E+00
      0.116  0.1348E+00  0.9103E+00
      0.173  0.3002E+00  0.9273E+00
      0.229  0.4796E+00  0.9544E+00
      0.286  0.6116E+00  0.9891E+00
      0.342  0.6515E+00  0.1026E+01
      0.399  0.5755E+00  0.1059E+01
      0.456  0.4687E+00  0.1085E+01
      0.512  0.4112E+00  0.1108E+01
      0.569  0.3232E+00  0.1127E+01
      0.626  0.1711E+00  0.1136E+01
      0.682  0.5359E-01  0.1139E+01
      0.739  0.9501E-02  0.1140E+01
      0.795  0.9352E-03  0.1140E+01
      0.852  0.5055E-04  0.1140E+01
      0.909  0.1488E-05  0.1140E+01
      0.965  0.2373E-07  0.1140E+01
      1.022  0.2037E-09  0.1140E+01
      1.079  0.9389E-12  0.1140E+01
      1.135  0.2333E-14  0.1140E+01
      1.192  0.7549E-14  0.1140E+01
      1.248  0.2617E-11  0.1140E+01
      1.305  0.4851E-09  0.1140E+01
      1.362  0.4840E-07  0.1140E+01
      1.418  0.2618E-05  0.1140E+01
      1.475  0.7756E-04  0.1140E+01
      1.532  0.1278E-02  0.1140E+01
      1.588  0.1199E-01  0.1141E+01
      1.645  0.6638E-01  0.1145E+01
      1.701  0.2278E+00  0.1157E+01
      1.758  0.5171E+00  0.1187E+01
      1.815  0.8386E+00  0.1234E+01
      1.871  0.1063E+01  0.1294E+01
      1.928  0.1155E+01  0.1360E+01
      1.985  0.1141E+01  0.1424E+01
      2.041  0.1043E+01  0.1483E+01
      2.098  0.9054E+00  0.1535E+01
      2.154  0.7534E+00  0.1577E+01
      2.211  0.5712E+00  0.1610E+01
      2.268  0.4294E+00  0.1634E+01
      2.324  0.3937E+00  0.1656E+01
      2.381  0.4204E+00  0.1680E+01
      2.438  0.4308E+00  0.1704E+01
      2.494  0.3495E+00  0.1724E+01
      2.551  0.1942E+00  0.1735E+01
      2.607  0.6766E-01  0.1739E+01
      2.664  0.1398E-01  0.1740E+01
      2.721  0.2141E-02  0.1740E+01
      2.777  0.6626E-02  0.1740E+01
      2.834  0.4740E-01  0.1743E+01
      2.891  0.1940E+00  0.1754E+01
      2.947  0.4539E+00  0.1780E+01
      3.004  0.6166E+00  0.1815E+01
      3.060  0.4924E+00  0.1843E+01
      3.117  0.2322E+00  0.1856E+01
      3.174  0.6438E-01  0.1859E+01
      3.230  0.1037E-01  0.1860E+01
      3.287  0.9558E-03  0.1860E+01
      3.344  0.4960E-04  0.1860E+01
      3.400  0.1472E-05  0.1860E+01
      3.457  0.2473E-05  0.1860E+01
      3.513  0.7636E-04  0.1860E+01
      3.570  0.1311E-02  0.1860E+01
      3.627  0.1254E-01  0.1861E+01
      3.683  0.6818E-01  0.1865E+01
      3.740  0.2165E+00  0.1877E+01
      3.797  0.4217E+00  0.1901E+01
      3.853  0.5543E+00  0.1932E+01
      3.910  0.5926E+00  0.1966E+01
      3.966  0.6307E+00  0.2001E+01
      4.023  0.6575E+00  0.2039E+01
      4.080  0.5651E+00  0.2071E+01
      4.136  0.3464E+00  0.2090E+01
      4.193  0.1467E+00  0.2099E+01
      4.250  0.9243E-01  0.2104E+01
      4.306  0.1980E+00  0.2115E+01
      4.363  0.3856E+00  0.2137E+01
      4.419  0.5283E+00  0.2167E+01
      4.476  0.5954E+00  0.2200E+01
      4.533  0.6745E+00  0.2239E+01
      4.589  0.7957E+00  0.2284E+01
      4.646  0.8659E+00  0.2333E+01
      4.703  0.8378E+00  0.2380E+01
      4.759  0.7602E+00  0.2423E+01
      4.816  0.6340E+00  0.2459E+01
      4.872  0.4298E+00  0.2483E+01
      4.929  0.2094E+00  0.2495E+01
      4.986  0.6721E-01  0.2499E+01
      5.042  0.1335E-01  0.2500E+01
      5.099  0.1565E-02  0.2500E+01
      5.156  0.1045E-03  0.2500E+01
      5.212  0.3876E-05  0.2500E+01
      5.269  0.7858E-07  0.2500E+01
      5.325  0.8626E-09  0.2500E+01
      5.382  0.1865E-09  0.2500E+01
      5.439  0.2029E-07  0.2500E+01
      5.495  0.1223E-05  0.2500E+01
      5.552  0.3997E-04  0.2500E+01
      5.608  0.7133E-03  0.2500E+01
      5.665  0.7007E-02  0.2500E+01
      5.722  0.3823E-01  0.2503E+01
      5.778  0.1169E+00  0.2509E+01
      5.835  0.2028E+00  0.2521E+01
      5.892  0.2088E+00  0.2533E+01
      5.948  0.1563E+00  0.2541E+01
      6.005  0.1306E+00  0.2549E+01
      6.061  0.1121E+00  0.2555E+01
      6.118  0.7026E-01  0.2559E+01
      6.175  0.5792E-01  0.2562E+01
      6.231  0.1233E+00  0.2569E+01
      6.288  0.2564E+00  0.2584E+01
      6.345  0.4058E+00  0.2607E+01
      6.401  0.4813E+00  0.2634E+01
      6.458  0.4110E+00  0.2657E+01
      6.514  0.2514E+00  0.2672E+01
      6.571  0.1129E+00  0.2678E+01
      6.628  0.5596E-01  0.2681E+01
      6.684  0.1061E+00  0.2687E+01
      6.741  0.2569E+00  0.2702E+01
      6.798  0.4210E+00  0.2726E+01
      6.854  0.4824E+00  0.2753E+01
      6.911  0.4149E+00  0.2776E+01
      6.967  0.2656E+00  0.2791E+01
      7.024  0.1170E+00  0.2798E+01
      7.081  0.4603E-01  0.2801E+01
      7.137  0.8291E-01  0.2805E+01
      7.194  0.2304E+00  0.2818E+01
      7.251  0.3908E+00  0.2841E+01
      7.307  0.3857E+00  0.2862E+01
      7.364  0.2217E+00  0.2875E+01
      7.420  0.7388E-01  0.2879E+01
      7.477  0.1414E-01  0.2880E+01
      7.534  0.1536E-02  0.2880E+01
      7.590  0.9362E-04  0.2880E+01
      7.647  0.1094E-04  0.2880E+01
      7.704  0.1864E-03  0.2880E+01
      7.760  0.2460E-02  0.2880E+01
      7.817  0.1832E-01  0.2881E+01
      7.873  0.7956E-01  0.2886E+01
      7.930  0.2131E+00  0.2898E+01
      7.987  0.3835E+00  0.2919E+01
      8.043  0.5147E+00  0.2949E+01
      8.100  0.5730E+00  0.2981E+01
      8.157  0.5918E+00  0.3015E+01
      8.213  0.6169E+00  0.3050E+01
      8.270  0.6142E+00  0.3084E+01
      8.326  0.5359E+00  0.3115E+01
      8.383  0.4426E+00  0.3140E+01
      8.440  0.3564E+00  0.3160E+01
      8.496  0.2287E+00  0.3173E+01
      8.553  0.1009E+00  0.3179E+01
      8.610  0.4637E-01  0.3181E+01
      8.666  0.7512E-01  0.3185E+01
      8.723  0.1449E+00  0.3194E+01
      8.779  0.1864E+00  0.3204E+01
      8.836  0.1583E+00  0.3213E+01
      8.893  0.8653E-01  0.3218E+01
      8.949  0.2860E-01  0.3220E+01
      9.006  0.5420E-02  0.3220E+01
      9.063  0.5701E-03  0.3220E+01
      9.119  0.3271E-04  0.3220E+01
      9.176  0.1014E-05  0.3220E+01
      9.232  0.1688E-07  0.3220E+01
      9.289  0.1505E-09  0.3220E+01
      9.346  0.7157E-12  0.3220E+01
      9.402  0.1804E-14  0.3220E+01
      9.459  0.0000E+00  0.3220E+01
      9.516  0.0000E+00  0.3220E+01
      9.572  0.0000E+00  0.3220E+01
      9.629  0.0000E+00  0.3220E+01
      9.685  0.0000E+00  0.3220E+01
      9.742  0.0000E+00  0.3220E+01
      9.799  0.0000E+00  0.3220E+01
