LAMMPS (20 Nov 2019)
# =============================================================
# ----------------------- tersoff Si --------------------------
# =============================================================

# ----------------------- set up calc -------------------------

### units
atom_style      atomic
units           metal

### periodicity
dimension       3
boundary        p p p
processors      * * *

### read structure
read_data	si.prim
  orthogonal box = (0 0 0) to (5.431 5.431 5.431)
  2 by 2 by 4 MPI processor grid
  reading atoms ...
  8 atoms
  read_data CPU = 0.00435671 secs
replicate       12 12 12
  orthogonal box = (0 0 0) to (65.172 65.172 65.172)
  2 by 2 by 4 MPI processor grid
  13824 atoms
  replicate CPU = 0.0012169 secs

### potential
pair_style      tersoff
pair_coeff      * * SiCGe.tersoff Si(D)
Reading potential file SiCGe.tersoff with DATE: 2009-03-18

### timestep and temp
timestep        0.001
variable        T equal 300

### what to print and how often
thermo_style    custom step temp pe etotal press pxx pyy pzz lx ly lz fmax fnorm
thermo          500

# -------------------- equilibration ------------------------

### NVT thermalization
velocity        all create ${T} 123456 mom yes rot yes dist gaussian
velocity        all create 300 123456 mom yes rot yes dist gaussian
fix             NVT all nvt temp ${T} ${T} $(dt*100) tchain 10
fix             NVT all nvt temp 300 ${T} $(dt*100) tchain 10
fix             NVT all nvt temp 300 300 $(dt*100) tchain 10
fix             NVT all nvt temp 300 300 0.10000000000000000555 tchain 10
run             5000
Neighbor list info ...
  update every 1 steps, delay 10 steps, check yes
  max neighbors/atom: 2000, page size: 100000
  master list distance cutoff = 5
  ghost atom cutoff = 5
  binsize = 2.5, bins = 27 27 27
  1 neighbor lists, perpetual/occasional/extra = 1 0 0
  (1) pair tersoff, perpetual
      attributes: full, newton on
      pair build: full/bin/atomonly
      stencil: full/bin/3d
      bin: standard
Per MPI rank memory allocation (min/avg/max) = 2.789 | 2.789 | 2.789 Mbytes
Step Temp PotEng TotEng Press Pxx Pyy Pzz Lx Ly Lz Fmax Fnorm 
       0          300   -63999.495   -63463.467    2611.7864    2618.5834    2630.8791    2585.8967       65.172       65.172       65.172 8.1087914e-14 7.9172954e-12 
     500    174.10023   -63641.518   -63330.442     4111.894    4108.2989    4138.1759    4089.2072       65.172       65.172       65.172    2.1932808    107.86908 
    1000    231.11073   -63600.336   -63187.396    4632.3314    4655.5319    4647.4628    4593.9994       65.172       65.172       65.172    2.4267404    110.37799 
    1500    248.91869   -63501.945   -63057.186    5425.8875    5453.3472    5388.7592     5435.556       65.172       65.172       65.172    2.6799425    124.32426 
    2000    284.94141   -63471.141   -62962.019    5753.4467    5732.1626    5808.2339    5719.9435       65.172       65.172       65.172    2.6416983    127.58866 
    2500    303.75291   -63462.003   -62919.268    6221.2289    6188.6181    6271.6033    6203.4653       65.172       65.172       65.172    2.6181331    130.71146 
    3000    298.77846   -63458.281   -62924.435    6036.1637    6003.2057    6046.5349    6058.7505       65.172       65.172       65.172    2.6579932    129.65758 
    3500     313.4081   -63475.153   -62915.167    6015.1728      6042.02    5985.5043    6017.9942       65.172       65.172       65.172     2.759927    128.10822 
    4000    302.45931   -63452.888   -62912.465    5992.6757    5996.8514    5980.0853    6001.0904       65.172       65.172       65.172    2.7214656    129.74644 
    4500    301.98431   -63462.771   -62923.197    6006.7508    6073.9455    5975.7953    5970.5117       65.172       65.172       65.172     2.596396    129.25222 
    5000    289.81914    -63440.64   -62922.802    6086.8839    6068.2599    6045.1831    6147.2085       65.172       65.172       65.172    3.0430203    132.29324 
Loop time of 14.2065 on 16 procs for 5000 steps with 13824 atoms

Performance: 30.409 ns/day, 0.789 hours/ns, 351.951 timesteps/s
98.7% CPU use with 16 MPI tasks x no OpenMP threads

MPI task timing breakdown:
Section |  min time  |  avg time  |  max time  |%varavg| %total
---------------------------------------------------------------
Pair    | 12.761     | 12.917     | 13.081     |   2.6 | 90.92
Neigh   | 0          | 0          | 0          |   0.0 |  0.00
Comm    | 0.85579    | 1.01       | 1.1607     |   9.3 |  7.11
Output  | 0.00079814 | 0.00081056 | 0.00093635 |   0.0 |  0.01
Modify  | 0.17402    | 0.18011    | 0.19065    |   1.5 |  1.27
Other   |            | 0.09851    |            |       |  0.69

Nlocal:    864 ave 864 max 864 min
Histogram: 16 0 0 0 0 0 0 0 0 0
Nghost:    1428 ave 1428 max 1428 min
Histogram: 16 0 0 0 0 0 0 0 0 0
Neighs:    0 ave 0 max 0 min
Histogram: 16 0 0 0 0 0 0 0 0 0
FullNghs:  24192 ave 24192 max 24192 min
Histogram: 16 0 0 0 0 0 0 0 0 0

Total # of neighbors = 387072
Ave neighs/atom = 28
Neighbor list builds = 0
Dangerous builds = 0
unfix           NVT

### NVE equlibration (de-correlate from thermostats)
fix             NVE all nve
run             5000
Per MPI rank memory allocation (min/avg/max) = 2.789 | 2.789 | 2.789 Mbytes
Step Temp PotEng TotEng Press Pxx Pyy Pzz Lx Ly Lz Fmax Fnorm 
    5000    289.81914    -63440.64   -62922.802    6086.8839    6068.2599    6045.1831    6147.2085       65.172       65.172       65.172    3.0430203    132.29324 
    5500    296.17181   -63452.012   -62922.823    6055.7393    6063.7644     6029.625    6073.8286       65.172       65.172       65.172    3.1202668    130.39354 
    6000    300.02334     -63458.9   -62922.829     6099.314    6091.5975    6140.0339    6066.3108       65.172       65.172       65.172    2.4822548    129.87851 
    6500     302.5094   -63463.349   -62922.836    5995.1898    6007.9721    5976.3774    6001.2199       65.172       65.172       65.172    2.7785414    129.34924 
    7000    309.36912   -63475.619   -62922.849    6098.7347    6107.7436    6108.2407    6080.2198       65.172       65.172       65.172    2.5087946    127.99574 
    7500    299.68233   -63458.292   -62922.831    5987.9393     6045.366    5975.4794    5942.9724       65.172       65.172       65.172    2.7095499    129.69605 
    8000     297.4117   -63454.233   -62922.829    6032.1087    5990.0937    6042.9675    6063.2648       65.172       65.172       65.172    2.7185845    130.13644 
    8500    297.95843   -63455.212   -62922.831    5995.5457    6017.6363    6019.0535    5949.9475       65.172       65.172       65.172    2.6300295     129.7514 
    9000    295.51785   -63450.851   -62922.831     5972.322    5958.2379    5942.4899    6016.2382       65.172       65.172       65.172    2.8809705    129.93633 
    9500    300.48686   -63459.731   -62922.832    6046.5679    6056.0831    6060.3657    6023.2548       65.172       65.172       65.172    2.6107043    129.70393 
   10000    300.57458   -63459.893   -62922.838    6002.4565    5960.7703    5998.1473    6048.4519       65.172       65.172       65.172    2.7325626    129.53804 
Loop time of 14.3912 on 16 procs for 5000 steps with 13824 atoms

Performance: 30.018 ns/day, 0.800 hours/ns, 347.435 timesteps/s
99.1% CPU use with 16 MPI tasks x no OpenMP threads

MPI task timing breakdown:
Section |  min time  |  avg time  |  max time  |%varavg| %total
---------------------------------------------------------------
Pair    | 12.952     | 13.152     | 13.335     |   3.4 | 91.39
Neigh   | 0          | 0          | 0          |   0.0 |  0.00
Comm    | 0.8563     | 1.0394     | 1.2394     |  12.2 |  7.22
Output  | 0.00084667 | 0.00086802 | 0.00095011 |   0.0 |  0.01
Modify  | 0.087143   | 0.087755   | 0.089069   |   0.2 |  0.61
Other   |            | 0.1111     |            |       |  0.77

Nlocal:    864 ave 879 max 849 min
Histogram: 1 1 2 2 1 4 1 1 1 2
Nghost:    1428 ave 1443 max 1413 min
Histogram: 2 0 1 1 5 1 2 1 1 2
Neighs:    0 ave 0 max 0 min
Histogram: 16 0 0 0 0 0 0 0 0 0
FullNghs:  24192 ave 24612 max 23772 min
Histogram: 1 1 2 2 1 4 1 1 1 2

Total # of neighbors = 387072
Ave neighs/atom = 28
Neighbor list builds = 0
Dangerous builds = 0
unfix           NVE

# -------------------- sample the data -----------------------

### vels/pos print frequency
variable	dt_dump equal 24

### print pos to hdf5 file
dump            pos all h5md ${dt_dump} pos.h5 position species
dump            pos all h5md 24 pos.h5 position species
dump_modify     pos sort id

### run to collect pos/vels
fix             NVE all nve
run             100000
Per MPI rank memory allocation (min/avg/max) = 2.805 | 2.805 | 2.805 Mbytes
Step Temp PotEng TotEng Press Pxx Pyy Pzz Lx Ly Lz Fmax Fnorm 
   10000    300.57458   -63459.893   -62922.838    6002.4565    5960.7703    5998.1473    6048.4519       65.172       65.172       65.172    2.7325626    129.53804 
   10500    302.71763    -63463.72   -62922.835    6082.9022     6002.336    6144.2559    6102.1147       65.172       65.172       65.172    2.9105467    130.32083 
   11000    294.83993   -63449.638   -62922.829     6047.853    6074.5756    5993.4956    6075.4877       65.172       65.172       65.172    2.7576017    130.33158 
   11500    294.51291   -63449.058   -62922.833    5946.3982       5942.8    5981.0386    5915.3561       65.172       65.172       65.172    2.7095278    130.34908 
   12000    304.00629   -63466.027    -62922.84    6057.6124    6065.0018    6048.5621    6059.2733       65.172       65.172       65.172    2.9009049    129.75417 
   12500    296.33843    -63452.32   -62922.833    5984.3314    5951.5607    6035.0512    5966.3824       65.172       65.172       65.172    2.6864605    130.33964 
   13000    303.53724   -63465.188   -62922.839    6073.8922    6146.9844    5972.9837    6101.7084       65.172       65.172       65.172    2.8060662    129.73837 
   13500     300.8375   -63460.359   -62922.834    6119.5501    6143.9737    6073.7717    6140.9049       65.172       65.172       65.172    2.8016434    130.43309 
   14000    295.71251   -63451.198    -62922.83    6021.7925    6025.0011    6013.1154     6027.261       65.172       65.172       65.172    2.8529158    130.46542 
   14500    304.97032   -63467.753   -62922.844    6072.8859    6037.4009    6057.7695    6123.4874       65.172       65.172       65.172    2.9010773    129.51219 
   15000    290.36733   -63441.644   -62922.827    5901.4537    5938.9814    5904.5789    5860.8008       65.172       65.172       65.172    2.5595654    131.07994 
   15500    300.57719   -63459.897   -62922.836    6071.0603      6059.16    6073.2791    6080.7418       65.172       65.172       65.172    3.0720367    130.15091 
   16000    297.56183   -63454.502   -62922.829    6072.7408    6125.2119     6075.888    6017.1225       65.172       65.172       65.172    2.6888238    130.88159 
   16500    302.95335   -63464.142   -62922.836    6121.6005    6146.8745    6147.4365    6070.4906       65.172       65.172       65.172    2.7472188    130.02529 
   17000    297.83621   -63454.993    -62922.83    6056.8893    6049.5023    6065.8518    6055.3137       65.172       65.172       65.172    2.6957318    130.83833 
   17500    299.84534   -63458.592   -62922.839    6025.1848    5972.7379    6068.8899    6033.9267       65.172       65.172       65.172    2.8387588    130.27492 
   18000    299.75415   -63458.421   -62922.832      6123.72    6133.8081    6094.3103    6143.0417       65.172       65.172       65.172    2.6281675    130.82408 
   18500     298.6982   -63456.543    -62922.84     5994.195    5981.4347     6038.506    5962.6444       65.172       65.172       65.172    2.5025726    130.02273 
   19000    306.13993   -63469.842   -62922.842     6154.026    6128.6098    6181.4362    6152.0319       65.172       65.172       65.172    2.9827589     129.7187 
   19500    298.40336   -63456.012   -62922.836     6055.053    6005.4639    6120.3081    6039.3869       65.172       65.172       65.172    2.9039939    130.29159 
   20000     297.7817   -63454.894   -62922.829    6096.5418    6062.2035     6127.149    6100.2729       65.172       65.172       65.172    3.0344141    130.91752 
   20500    300.30273   -63459.404   -62922.834    6104.8024     6142.813    6085.5099    6086.0841       65.172       65.172       65.172    2.7599611    130.33121 
   21000    296.07776   -63451.847   -62922.827     6087.386    6083.8268    6087.3769    6090.9543       65.172       65.172       65.172    2.7756804    131.26206 
   21500    299.38248   -63457.761   -62922.836    6051.5538    6054.3804    6078.3492    6021.9318       65.172       65.172       65.172    2.9623419    130.19095 
   22000    298.59091   -63456.345   -62922.834    6072.6382    6063.2432    6105.2864     6049.385       65.172       65.172       65.172    2.7908255    130.52746 
   22500    299.09525   -63457.245   -62922.832    6079.3083    6088.3139    6114.3558    6035.2551       65.172       65.172       65.172    2.7279812    130.46872 
   23000    300.22701   -63459.276   -62922.841    5981.1774    5920.6359    6028.1006    5994.7958       65.172       65.172       65.172    2.7570991    129.26542 
   23500     297.7783   -63454.889   -62922.829    6046.6749     6083.976    6011.5174    6044.5313       65.172       65.172       65.172    2.9226213    130.86926 
   24000    299.74735   -63458.413   -62922.835    6080.6986    6020.0752     6127.523    6094.4977       65.172       65.172       65.172    2.9285239    130.09492 
   24500    298.73516   -63456.604   -62922.835    6046.0777    6054.0643    6017.5482    6066.6207       65.172       65.172       65.172    2.8084171    130.10426 
   25000    301.66495   -63461.841   -62922.837    6083.2732    6084.0857    6026.8664    6138.8677       65.172       65.172       65.172    2.8493491    130.00495 
   25500     299.6249   -63458.187   -62922.828     6137.786    6180.3389    6122.3289    6110.6903       65.172       65.172       65.172    3.1702784    130.60227 
   26000    297.81403   -63454.955   -62922.832    6055.3298    6091.5773    6017.6252    6056.7869       65.172       65.172       65.172    2.6808591     130.5246 
   26500     301.5604   -63461.652   -62922.835     6072.256    6093.1335    6057.7981    6065.8365       65.172       65.172       65.172    2.9589657    129.94081 
   27000    301.29987   -63461.183   -62922.831    6103.5268    6089.8436    6060.7064    6160.0303       65.172       65.172       65.172    3.0119765    130.34304 
   27500    298.22894   -63455.694    -62922.83    6043.0811    6038.6314    5997.5892    6093.0226       65.172       65.172       65.172    2.9544541     130.5768 
   28000    298.01486   -63455.311   -62922.829    6037.4334    6047.7042    6052.4506    6012.1453       65.172       65.172       65.172    2.8559535    130.88739 
   28500    300.66824   -63460.064   -62922.841    6023.9696    6048.8119    6023.3701    5999.7269       65.172       65.172       65.172    2.6974758    129.58845 
   29000    299.21076   -63457.456   -62922.837    6052.5972    6034.6399    6074.1537    6048.9979       65.172       65.172       65.172    2.6559256    130.10803 
   29500    298.01471   -63455.313   -62922.832    6087.1576    6045.4536    6106.4112    6109.6081       65.172       65.172       65.172    2.5944263    130.67228 
   30000    296.76873   -63453.087   -62922.832    6085.8101    6064.6125    6060.3573    6132.4607       65.172       65.172       65.172    2.8342028    130.63875 
   30500    301.65892   -63461.831   -62922.838    6060.8738    6058.5585    6051.3579     6072.705       65.172       65.172       65.172    2.7854233    129.92414 
   31000    301.96139   -63462.372   -62922.839    6069.2843    6126.9071     6044.596      6036.35       65.172       65.172       65.172    3.0229238    129.99809 
   31500    297.78444   -63454.904   -62922.833    6041.8891    6062.2499    6003.1216    6060.2956       65.172       65.172       65.172    2.7179644     130.7878 
   32000    298.07736   -63455.425   -62922.831    6070.2269    6084.5026    6063.2505    6062.9276       65.172       65.172       65.172    2.8497873    130.88746 
   32500     300.2171   -63459.255   -62922.838    6021.9991    5986.6801    6040.5485    6038.7686       65.172       65.172       65.172    3.2198566    130.37089 
   33000    300.49401    -63459.75   -62922.839    6067.5412    6065.3374    6068.9704    6068.3159       65.172       65.172       65.172      2.74751     130.3015 
   33500    301.73071   -63461.965   -62922.843    6042.3429    6046.2854    6033.3075    6047.4359       65.172       65.172       65.172     2.638498    129.85637 
   34000    297.93565   -63455.179   -62922.838    6016.4677    6061.1667    6006.7016     5981.535       65.172       65.172       65.172    2.6772393    130.09065 
   34500    299.08179   -63457.222   -62922.833     6059.782    6082.8558    6039.1362    6057.3541       65.172       65.172       65.172    2.7315989    130.58555 
   35000     301.9155   -63462.291   -62922.839    6056.1054    6060.9656    6144.7453    5962.6053       65.172       65.172       65.172    2.6037781    129.75262 
   35500    298.56245   -63456.291    -62922.83    6106.2361    6048.3286    6126.1151    6144.2645       65.172       65.172       65.172    2.7536179    130.80284 
   36000    299.18969   -63457.418   -62922.837     6034.143    6050.5946    5979.3451    6072.4892       65.172       65.172       65.172    2.6800442    129.81283 
   36500    301.00889   -63460.666   -62922.834     6054.229    6070.1047    6033.2855    6059.2969       65.172       65.172       65.172    2.7728998    130.38343 
   37000    298.63567   -63456.426   -62922.835    6025.6338     6022.004    6043.4183    6011.4791       65.172       65.172       65.172    2.7140746    130.28281 
   37500    297.96004   -63455.214    -62922.83    6044.7553    6070.1758    6024.5369    6039.5532       65.172       65.172       65.172     2.642804     130.5035 
   38000    301.77037    -63462.03   -62922.838    6063.0324    6110.7131     6028.206    6050.1782       65.172       65.172       65.172    2.9138542      129.912 
   38500    299.83798   -63458.578   -62922.839    6032.7737    6019.1077    6055.8072    6023.4063       65.172       65.172       65.172    2.5671042    129.84083 
   39000    300.52423   -63459.802   -62922.837    6047.3243    5993.9987    6094.9711    6053.0032       65.172       65.172       65.172    2.5405327    130.00415 
   39500    300.33661   -63459.459   -62922.829    6077.0438    6049.7919    6100.6467     6080.693       65.172       65.172       65.172    2.8880319    130.86202 
   40000    299.62806     -63458.2   -62922.836     6070.817    6093.5508    6093.0883     6025.812       65.172       65.172       65.172    3.1221899    130.28801 
   40500    299.69678   -63458.321   -62922.834    6070.0942    6030.3509    6100.3195    6079.6124       65.172       65.172       65.172    2.9780504    130.17403 
   41000    296.20523   -63452.076   -62922.827       6041.3    6072.8197     6023.481    6027.5992       65.172       65.172       65.172    2.8563743    131.03766 
   41500    299.89619    -63458.68   -62922.836    6076.6601    6071.2351    6062.7661     6095.979       65.172       65.172       65.172    2.7279298    130.07293 
   42000    299.28773    -63457.59   -62922.833    6060.3581    6058.6878    6057.3631    6065.0234       65.172       65.172       65.172    2.9093617    130.22908 
   42500    298.76724   -63456.662   -62922.836    6013.3159    6024.6225    6032.4508    5982.8743       65.172       65.172       65.172    3.1507562    130.10498 
   43000    296.90239   -63453.327   -62922.833    6004.5582    5982.5677     6012.528     6018.579       65.172       65.172       65.172    3.1054951    130.46188 
   43500     301.6398   -63461.794   -62922.835    6101.4073    6089.0277    6090.0249    6125.1693       65.172       65.172       65.172    2.5342227    130.11832 
   44000    298.94042   -63456.965   -62922.829    6057.0147    6037.6245    6086.7402    6046.6795       65.172       65.172       65.172    2.8923375    130.65031 
   44500    301.50117   -63461.547   -62922.836    6055.9643    6070.6413    6019.7864    6077.4651       65.172       65.172       65.172    2.7520598    130.06692 
   45000    300.91274   -63460.498   -62922.838    6008.8629    5995.0843    6039.5674     5991.937       65.172       65.172       65.172    2.5887456    129.82427 
   45500    299.79703   -63458.501   -62922.835    6053.1898    6063.5698    6037.7705    6058.2292       65.172       65.172       65.172    2.8273329     130.2139 
   46000    297.51636   -63454.424   -62922.833     6035.288    6003.8967    6090.0774    6011.8899       65.172       65.172       65.172    2.8403669    130.45858 
   46500    300.87353   -63460.424   -62922.834    6081.7279    6125.5151     6042.236    6077.4326       65.172       65.172       65.172    2.8379664    130.43949 
   47000    299.83217   -63458.564   -62922.835    6030.5353    6055.7541    6052.2816    5983.5702       65.172       65.172       65.172    2.9271612    130.38817 
   47500    296.79688   -63453.135   -62922.829    6057.6482    6037.4446    6099.4605    6036.0396       65.172       65.172       65.172    2.6966975    131.08471 
   48000    300.05635   -63458.966   -62922.837    6053.8777    6001.9743    6063.1643    6096.4947       65.172       65.172       65.172    2.6431028    130.10627 
   48500    299.19694   -63457.428   -62922.834    6055.6339    6033.4523    6081.7874    6051.6619       65.172       65.172       65.172    2.5906461     130.3609 
   49000    299.85387   -63458.603   -62922.835    6051.5327    5985.3472    6070.5614    6098.6896       65.172       65.172       65.172    3.1910278    130.37667 
   49500    301.25741   -63461.113   -62922.837    6042.6911    6017.8702    6073.8696    6036.3336       65.172       65.172       65.172    2.8961075    130.10284 
   50000    300.85298   -63460.386   -62922.833    6063.3059    6100.3037    6043.5829     6046.031       65.172       65.172       65.172    2.7403419    130.44668 
   50500    298.45803   -63456.105   -62922.831    6104.5269    6102.3667    6097.9953    6113.2187       65.172       65.172       65.172    2.7147074    130.38866 
   51000    298.70465   -63456.551   -62922.836    5975.4059    6030.4382    5924.9938    5970.7858       65.172       65.172       65.172    2.8574168    129.96893 
   51500    300.26179    -63459.33   -62922.833    6060.6246    6114.8046    6002.7344    6064.3349       65.172       65.172       65.172    3.0606176    130.34649 
   52000    298.58039   -63456.326   -62922.833    6010.1092     6000.429    6014.5255     6015.373       65.172       65.172       65.172    2.7129361    130.32793 
   52500    301.01317   -63460.677   -62922.837    6087.4595    6090.5712    6061.5981    6110.2091       65.172       65.172       65.172    3.0234387    129.93017 
   53000     299.1074   -63457.267   -62922.833    6050.7561    6061.9707    6020.9037     6069.394       65.172       65.172       65.172    2.6154483    130.45831 
   53500    299.96358   -63458.798   -62922.834     6079.883    6094.5994    6053.1346    6091.9149       65.172       65.172       65.172    2.9972091    130.26689 
   54000    300.99997    -63460.65   -62922.834    6045.6165    6056.6526    6056.1723    6024.0244       65.172       65.172       65.172    2.9730042    130.23341 
   54500    300.18333   -63459.195   -62922.839    5992.5661    6015.2103    5985.4905    5976.9976       65.172       65.172       65.172    2.8355407    129.85184 
   55000    297.40504    -63454.22   -62922.828    6057.1909    6051.8506    6091.1374    6028.5846       65.172       65.172       65.172    3.0111647    130.93349 
   55500    299.74938   -63458.409   -62922.828     6081.929    6045.4807    6063.4172     6136.889       65.172       65.172       65.172    3.2047639    130.90635 
   56000    300.41273   -63459.601   -62922.835    6078.8122    6004.7454    6133.5177    6098.1733       65.172       65.172       65.172    2.6055876    130.31975 
   56500    297.99483    -63455.28   -62922.834    6011.8706    5997.7572    6019.4377    6018.4169       65.172       65.172       65.172    2.7766033    129.91253 
   57000    302.07911   -63462.576   -62922.832    6102.7255    6081.6446    6151.6474    6074.8843       65.172       65.172       65.172     2.857735    130.24625 
   57500    304.09955   -63466.192   -62922.838    6096.3574    6070.1443    6153.0097    6065.9182       65.172       65.172       65.172    2.8068823    129.97544 
   58000    301.37134   -63461.316   -62922.837    6042.8888    6029.6013    6054.6016    6044.4634       65.172       65.172       65.172    2.8091353    129.75457 
   58500    299.70036   -63458.327   -62922.834    6065.8576    6064.2696     6015.166    6118.1372       65.172       65.172       65.172    3.0509894    130.05167 
   59000     299.7252    -63458.38   -62922.843     5936.513    5932.3804    5961.0962    5916.0624       65.172       65.172       65.172    2.6819626    129.26721 
   59500    297.31741    -63454.06   -62922.825    6086.1773    6086.0058    6084.7149    6087.8112       65.172       65.172       65.172    2.8724429    130.74373 
   60000    301.74018    -63461.98   -62922.841     6048.307    6019.5785     6071.557    6053.7855       65.172       65.172       65.172    3.1100686    129.66151 
   60500     298.1857    -63455.62   -62922.833    6042.1633    6061.9273    6018.6489    6045.9136       65.172       65.172       65.172    2.4961976    130.36569 
   61000    299.69582   -63458.323   -62922.837    6036.1975    6068.7668    6034.3061    6005.5197       65.172       65.172       65.172    3.0475334    129.93124 
   61500     300.2531   -63459.313   -62922.832    6056.5951    6090.7896    6047.3108    6031.6848       65.172       65.172       65.172    2.7989535    130.41545 
   62000    298.73677   -63456.601   -62922.829    6060.9072    6104.7439     6028.262    6049.7156       65.172       65.172       65.172    2.9571511    130.51562 
   62500    304.16402   -63466.309    -62922.84     6091.617    6130.5684    6055.4904    6088.7922       65.172       65.172       65.172    2.4369547    129.75137 
   63000    300.09868   -63459.041   -62922.836     6052.508    6113.6548    6050.3764    5993.4927       65.172       65.172       65.172     2.570324    130.06535 
   63500    298.18651   -63455.628   -62922.839    5992.9779    5982.1995    6010.8922     5985.842       65.172       65.172       65.172    2.8600193    129.57247 
   64000    300.90584   -63460.486   -62922.838    6032.6971    6020.8731    6058.7718    6018.4464       65.172       65.172       65.172    2.6372676    129.83655 
   64500    299.58953   -63458.124   -62922.828    6128.6348    6147.8161      6093.03    6145.0582       65.172       65.172       65.172    2.7983165    130.66187 
   65000    302.41754    -63463.19   -62922.841    6060.3016    6030.3975    6045.3386    6105.1687       65.172       65.172       65.172    2.7756664    129.66682 
   65500    297.82402    -63454.97   -62922.829    6058.4733    6047.0693    6068.3767     6059.974       65.172       65.172       65.172    2.9202915    130.85817 
   66000    300.60281   -63459.942   -62922.836     6082.793    6090.6744     6046.455    6111.2497       65.172       65.172       65.172    2.6277902    130.19796 
   66500     301.5843   -63461.703   -62922.843    6024.5481    5989.4639    6086.2229    5997.9576       65.172       65.172       65.172    2.8842594    129.38067 
   67000    299.29609   -63457.602   -62922.831    6086.0441    6034.0868    6094.2515     6129.794       65.172       65.172       65.172    3.1905008    130.64863 
   67500    299.94799   -63458.775   -62922.839    6051.9994    6030.4616    6093.0732    6032.4633       65.172       65.172       65.172     3.109185    129.87548 
   68000     295.6127   -63451.014   -62922.824    6086.6084    6106.7162    6055.6555    6097.4535       65.172       65.172       65.172     2.617876    131.27864 
   68500    300.16968   -63459.165   -62922.833     6088.536    6122.3561    6034.9047     6108.347       65.172       65.172       65.172    2.7409716    130.09099 
   69000    297.15474   -63453.779   -62922.833    6034.0608    6012.7152    6047.1631    6042.3042       65.172       65.172       65.172    2.7768267    130.17107 
   69500    301.09922   -63460.835   -62922.842    6055.1356    6055.4398    6044.8043    6065.1629       65.172       65.172       65.172     2.939225    129.61333 
   70000     299.9806   -63458.832   -62922.838    6025.0558    6064.2513    6003.6683    6007.2477       65.172       65.172       65.172    2.5340458    129.87357 
   70500     300.1019    -63459.05    -62922.84     6036.173    6081.4467    6007.9339    6019.1382       65.172       65.172       65.172    2.7684272    129.74509 
   71000    302.43179   -63463.214   -62922.841    6078.0103    6109.7886    6026.0638    6098.1784       65.172       65.172       65.172    2.8907407    129.86349 
   71500     300.7124   -63460.135   -62922.833     6065.501    6097.9714    6081.4023    6017.1291       65.172       65.172       65.172    2.9449285    130.42656 
   72000    300.77323   -63460.246   -62922.836    6118.4473    6137.0851    6057.9854    6160.2714       65.172       65.172       65.172     2.594407     130.1494 
   72500    297.65208   -63454.665   -62922.831     6072.155    6054.8478    6096.9179    6064.6994       65.172       65.172       65.172    2.7181948    130.56886 
   73000    297.68521   -63454.725   -62922.832     6069.202    6088.5639    6043.8445    6075.1977       65.172       65.172       65.172    2.7203399     130.5667 
   73500    299.69805   -63458.324   -62922.835     6106.376    6126.5521    6073.7468    6118.8291       65.172       65.172       65.172    2.5867846    130.33036 
   74000    301.46026   -63461.479   -62922.841     6043.839    6026.6273    6026.1594    6078.7303       65.172       65.172       65.172    2.7995075    129.49963 
   74500    300.21525   -63459.244   -62922.831     6084.387    6080.3228    6106.6153    6066.2228       65.172       65.172       65.172    2.6955256     130.1518 
   75000    302.92572   -63464.095   -62922.839    6054.3542    6055.4305      6037.15    6070.4822       65.172       65.172       65.172    2.6818098    129.74624 
   75500    299.53339   -63458.031   -62922.836    6054.1183    6080.1905     6050.643    6031.5213       65.172       65.172       65.172    2.5194695    129.88063 
   76000    299.04854   -63457.162   -62922.833    6056.4404      6026.06    6045.8247    6097.4364       65.172       65.172       65.172    2.8384067    130.09609 
   76500    300.49344   -63459.747   -62922.837    6103.9186    6134.2673    6093.6347    6083.8538       65.172       65.172       65.172    2.7939484    130.28268 
   77000    300.53295   -63459.819   -62922.838    6086.8009    6063.3617    6095.4246    6101.6164       65.172       65.172       65.172    2.7782387    130.01052 
   77500    303.21444    -63464.61   -62922.838     6146.023     6116.982     6175.786    6145.3009       65.172       65.172       65.172     2.519425    130.13336 
   78000    298.40157   -63456.006   -62922.833    6065.5178    6048.5065    6051.6645    6096.3824       65.172       65.172       65.172    2.8269545    130.26965 
   78500    300.00791   -63458.882   -62922.839    6053.9468    6019.4184    6050.1662    6092.2556       65.172       65.172       65.172    2.4859265    129.85506 
   79000    297.55863   -63454.495   -62922.828    6148.2713    6133.6542    6140.6444    6170.5151       65.172       65.172       65.172    2.7076307    131.01189 
   79500    299.52241   -63458.006   -62922.831    6093.3315    6108.4068    6186.3621    5985.2256       65.172       65.172       65.172    2.6235613     130.7737 
   80000    301.26229   -63461.125   -62922.841     6080.994       6078.2    6066.6159    6098.1661       65.172       65.172       65.172    2.8014562    130.14479 
   80500    300.94022   -63460.546   -62922.837    6080.6693    6057.1949    6047.8418    6136.9711       65.172       65.172       65.172    3.2795618    130.08841 
   81000    301.04409   -63460.735    -62922.84    6061.8845    6060.5228    6101.6007    6023.5301       65.172       65.172       65.172    2.8436442    129.84782 
   81500    300.42277   -63459.622   -62922.837    6051.1224    6053.0948    6033.2182    6067.0542       65.172       65.172       65.172    2.5063194    130.11948 
   82000     298.8539   -63456.813   -62922.832    6098.8218    6101.2258    6061.0419    6134.1977       65.172       65.172       65.172    2.7632737    130.53968 
   82500    302.18358   -63462.768   -62922.837    6097.8099    6139.7206    6079.7337    6073.9755       65.172       65.172       65.172    2.8250941    129.74107 
   83000    299.56832   -63458.094   -62922.836    6044.9025    6033.9292    6057.0059    6043.7723       65.172       65.172       65.172    2.7562751    130.07411 
   83500    299.19283   -63457.425   -62922.838    6050.0621    6004.5663    6110.8313    6034.7888       65.172       65.172       65.172      2.74366    129.74891 
   84000    298.61714   -63456.386   -62922.828    6086.9681    6045.5967     6097.081    6118.2268       65.172       65.172       65.172    2.6868258    130.63536 
   84500    299.28065   -63457.575   -62922.832    6077.4026    6100.4936    6075.7247    6055.9895       65.172       65.172       65.172     2.545975    130.43026 
   85000    300.52531   -63459.803   -62922.836    6084.7129    6104.2981     6035.283    6114.5576       65.172       65.172       65.172    3.2692069     130.0768 
   85500    301.23451    -63461.07   -62922.836    6072.6294    6098.5898    6071.8307    6047.4678       65.172       65.172       65.172    3.0251063    130.18904 
   86000    298.19984   -63455.645   -62922.832    6042.0125    6065.6448    6066.6547    5993.7378       65.172       65.172       65.172    2.6016998    130.21516 
   86500    296.98065   -63453.465   -62922.831     6052.725     6058.736    6079.8009     6019.638       65.172       65.172       65.172    2.5159741    130.58202 
   87000    298.66131   -63456.469   -62922.832    6076.4132    6113.3789    6025.8477    6090.0131       65.172       65.172       65.172    2.8199643    130.40204 
   87500    300.18925   -63459.207    -62922.84    5973.1475     5942.601    5974.6165    6002.2251       65.172       65.172       65.172    2.6331228    129.75559 
   88000    299.61172   -63458.169   -62922.834    6071.3528    6103.6375    6031.0155    6079.4055       65.172       65.172       65.172    2.8270536     130.2763 
   88500    301.02481   -63460.695   -62922.835    6035.2738    6021.5714    5986.8654    6097.3847       65.172       65.172       65.172    2.9372326    129.83904 
   89000    297.88493   -63455.082   -62922.832    6012.9735    6018.8259    5984.4829    6035.6116       65.172       65.172       65.172    2.8740576    130.02859 
   89500    300.76837   -63460.235   -62922.833    6047.6778    6086.7948    6063.6957     5992.543       65.172       65.172       65.172    3.1616031    130.01772 
   90000    298.98405   -63457.047   -62922.834    6045.0016    6060.6398    6080.5356    5993.8293       65.172       65.172       65.172    3.0196037    130.05988 
   90500    297.68159   -63454.715   -62922.829    6060.6223    6040.2112    6117.1648     6024.491       65.172       65.172       65.172    2.7177268    130.54158 
   91000     300.6422    -63460.01   -62922.834    6105.3579    6148.6124    6076.3174    6091.1438       65.172       65.172       65.172    2.7573357    130.13384 
   91500    298.16521   -63455.578   -62922.827    6090.4831     6107.882    6064.0401    6099.5274       65.172       65.172       65.172    2.7482927    130.52901 
   92000    303.92337   -63465.879    -62922.84    6083.3933    6148.4574    6121.1889    5980.5334       65.172       65.172       65.172    2.6113299    129.49889 
   92500    298.56062    -63456.29   -62922.833    6029.5013    6072.5172    6039.7234    5976.2633       65.172       65.172       65.172    2.8368307    130.06133 
   93000    299.15646   -63457.354   -62922.833    6051.6594    5998.6535      6122.91    6033.4148       65.172       65.172       65.172    2.7658213    130.24583 
   93500    300.28475    -63459.37   -62922.832    6067.3623    6072.6453    6095.0043    6034.4372       65.172       65.172       65.172    2.7400065    130.22998 
   94000    299.65567   -63458.249   -62922.835    6011.8034    5980.2585    5991.7435    6063.4082       65.172       65.172       65.172    2.7003475    129.95618 
   94500    299.49889   -63457.967   -62922.833     6026.819    6004.0918    6018.9579    6057.4073       65.172       65.172       65.172    2.6945951    130.23101 
   95000    300.99599   -63460.646   -62922.838    6026.9917     5989.099    6032.9589    6058.9171       65.172       65.172       65.172    2.9404253    129.74655 
   95500    300.74151    -63460.19   -62922.836    6061.7948     6096.492    6034.5865    6054.3059       65.172       65.172       65.172    2.7627807    129.72003 
   96000     300.5648   -63459.869   -62922.831    6054.4068    6045.7448    6088.6181    6028.8575       65.172       65.172       65.172    2.7158273    130.25302 
   96500    299.64842   -63458.234   -62922.833    6076.4582    6116.6548    6100.5015    6012.2185       65.172       65.172       65.172    2.8514606    130.12199 
   97000    299.82113   -63458.549    -62922.84     6004.768     5990.562    6046.1308    5977.6112       65.172       65.172       65.172    2.7375661    129.52884 
   97500    297.28333   -63454.007   -62922.833    6027.7259    6000.1676    6059.3265    6023.6837       65.172       65.172       65.172    2.4983367    130.07887 
   98000    299.82623   -63458.553   -62922.834    6021.3739    6033.0615    6018.1282    6012.9319       65.172       65.172       65.172     2.551508     130.0779 
   98500    303.47315   -63465.077   -62922.843    6029.2079    6042.0033    6037.9537    6007.6666       65.172       65.172       65.172    2.6691125    129.41112 
   99000    301.12693   -63460.877   -62922.835    6057.7441    6000.9485    6088.3971    6083.8868       65.172       65.172       65.172    3.0003496    129.96961 
   99500    300.32609   -63459.448   -62922.836    6029.6645    6026.4868    6033.1486     6029.358       65.172       65.172       65.172    2.9683698    129.97088 
  100000    301.06466   -63460.768   -62922.836    6032.8865    6053.0558    6052.3969    5993.2068       65.172       65.172       65.172    2.6865389    129.72007 
  100500    299.97416   -63458.819   -62922.837    6020.7378    6017.9647    6021.6468    6022.6019       65.172       65.172       65.172    2.4390063    129.88693 
  101000    297.11708   -63453.709   -62922.831    6043.3802    6019.8764    6093.8191    6016.4452       65.172       65.172       65.172    2.6596416     130.2914 
  101500    303.48418   -63465.099   -62922.845    6019.4434    6034.1114    5996.8408     6027.378       65.172       65.172       65.172    2.7524543    129.26595 
  102000    298.47296    -63456.13    -62922.83    6055.7014    6078.3655    6036.8569    6051.8817       65.172       65.172       65.172    2.7283898    130.41159 
  102500    301.20848   -63461.026   -62922.838    6028.7708    6035.4969    6023.1898    6027.6256       65.172       65.172       65.172     2.798303    129.57471 
  103000    299.62457   -63458.192   -62922.834    6039.1548    6009.1392    6065.3208    6043.0045       65.172       65.172       65.172     2.570505    130.10194 
  103500    298.62334   -63456.398   -62922.829    6075.8042    6065.9495    6141.0014    6020.4617       65.172       65.172       65.172    2.5771872    130.62658 
  104000    300.11849   -63459.073   -62922.833    6046.4778    6039.1244    6041.4274    6058.8817       65.172       65.172       65.172    3.5196499    130.16679 
  104500    300.86506   -63460.411   -62922.837    6029.3665    5996.2529     6095.597    5996.2497       65.172       65.172       65.172    2.8783627    129.71484 
  105000     298.8217   -63456.755   -62922.831    6017.9675    6061.6413    5996.2627    5995.9986       65.172       65.172       65.172    2.7106062    130.26785 
  105500    302.67456   -63463.651   -62922.843    6019.8593    6028.6301    6024.2549     6006.693       65.172       65.172       65.172    2.9258497    129.24913 
  106000    304.12962    -63466.25   -62922.842    6053.5742    6111.9042    6036.4781    6012.3404       65.172       65.172       65.172    2.9639281    129.11679 
  106500    299.19316   -63457.415   -62922.828    6080.3343    6121.2747    6151.2256    5968.5025       65.172       65.172       65.172    2.8567553    130.17238 
  107000     298.8193   -63456.753   -62922.834    6009.5766    5976.7095    6051.8432    6000.1772       65.172       65.172       65.172    2.8021767    129.73637 
  107500    298.16202    -63455.58   -62922.835    5995.4527    5985.4174    5997.9598    6002.9809       65.172       65.172       65.172    2.6715102    129.71174 
  108000    300.01343   -63458.888   -62922.835    5957.0117     5982.927    5996.7431    5891.3651       65.172       65.172       65.172    2.9162542    129.72967 
  108500    300.71767   -63460.148   -62922.837    6013.6058    6015.3735    5989.3827    6036.0611       65.172       65.172       65.172    2.5938844    129.57387 
  109000    298.34084   -63455.893   -62922.828     6035.137    6022.0315    6087.7532    5995.6262       65.172       65.172       65.172    2.6836656    130.44141 
  109500    300.56065   -63459.866   -62922.835    6020.0873    6008.6396    6051.3123    6000.3099       65.172       65.172       65.172    2.4640887    129.89741 
  110000    299.60345   -63458.153   -62922.832    6066.8355     6046.345    6047.7807    6106.3809       65.172       65.172       65.172    2.6484591    130.11215 
Loop time of 304.063 on 16 procs for 100000 steps with 13824 atoms

Performance: 28.415 ns/day, 0.845 hours/ns, 328.879 timesteps/s
98.8% CPU use with 16 MPI tasks x no OpenMP threads

MPI task timing breakdown:
Section |  min time  |  avg time  |  max time  |%varavg| %total
---------------------------------------------------------------
Pair    | 258.78     | 263.93     | 270.77     |  19.2 | 86.80
Neigh   | 0          | 0          | 0          |   0.0 |  0.00
Comm    | 21.738     | 28.508     | 33.675     |  58.5 |  9.38
Output  | 0.85082    | 1.7066     | 7.6549     | 119.4 |  0.56
Modify  | 1.751      | 1.7704     | 1.7967     |   1.0 |  0.58
Other   |            | 8.152      |            |       |  2.68

Nlocal:    864 ave 883 max 845 min
Histogram: 1 0 2 5 1 1 1 2 2 1
Nghost:    1428 ave 1447 max 1409 min
Histogram: 1 2 2 1 1 1 5 2 0 1
Neighs:    0 ave 0 max 0 min
Histogram: 16 0 0 0 0 0 0 0 0 0
FullNghs:  24192 ave 24724 max 23660 min
Histogram: 1 0 2 5 1 1 1 2 2 1

Total # of neighbors = 387072
Ave neighs/atom = 28
Neighbor list builds = 0
Dangerous builds = 0
unfix           NVE






Total wall time: 0:05:32
