LAMMPS (20 Nov 2019)
# =============================================================
# ----------------------- tersoff Si --------------------------
# =============================================================

# ----------------------- set up calc -------------------------

### units
atom_style      atomic
units           metal

### periodicity
dimension       3
boundary        p p p
processors      * * *

### read structure
read_data	si.prim
  orthogonal box = (0 0 0) to (5.431 5.431 5.431)
  1 by 2 by 2 MPI processor grid
  reading atoms ...
  8 atoms
  read_data CPU = 0.00104099 secs
replicate       12 12 12
  orthogonal box = (0 0 0) to (65.172 65.172 65.172)
  1 by 2 by 2 MPI processor grid
  13824 atoms
  replicate CPU = 0.0011132 secs

### potential
pair_style      tersoff
pair_coeff      * * SiCGe.tersoff Si(D)
Reading potential file SiCGe.tersoff with DATE: 2009-03-18

### timestep and temp
timestep        0.001
variable        T equal 300

### what to print and how often
thermo_style    custom step temp pe etotal press pxx pyy pzz lx ly lz fmax fnorm
thermo          500

# -------------------- equilibration ------------------------

### NVT thermalization
velocity        all create ${T} 123456 mom yes rot yes dist gaussian
velocity        all create 300 123456 mom yes rot yes dist gaussian
fix             NVT all nvt temp ${T} ${T} $(dt*100) tchain 10
fix             NVT all nvt temp 300 ${T} $(dt*100) tchain 10
fix             NVT all nvt temp 300 300 $(dt*100) tchain 10
fix             NVT all nvt temp 300 300 0.10000000000000000555 tchain 10
run             5000
Neighbor list info ...
  update every 1 steps, delay 10 steps, check yes
  max neighbors/atom: 2000, page size: 100000
  master list distance cutoff = 5
  ghost atom cutoff = 5
  binsize = 2.5, bins = 27 27 27
  1 neighbor lists, perpetual/occasional/extra = 1 0 0
  (1) pair tersoff, perpetual
      attributes: full, newton on
      pair build: full/bin/atomonly
      stencil: full/bin/3d
      bin: standard
Per MPI rank memory allocation (min/avg/max) = 2.938 | 2.938 | 2.938 Mbytes
Step Temp PotEng TotEng Press Pxx Pyy Pzz Lx Ly Lz Fmax Fnorm 
       0          300   -63999.495   -63463.467    2611.7864    2618.5834    2630.8791    2585.8967       65.172       65.172       65.172 7.6647022e-14 7.8932155e-12 
     500    174.10023   -63641.518   -63330.442     4111.894    4108.2989    4138.1759    4089.2072       65.172       65.172       65.172    2.1932808    107.86908 
    1000    231.11073   -63600.336   -63187.396    4632.3314    4655.5319    4647.4628    4593.9994       65.172       65.172       65.172    2.4267404    110.37799 
    1500    248.91869   -63501.945   -63057.186    5425.8875    5453.3472    5388.7592     5435.556       65.172       65.172       65.172    2.6799425    124.32426 
    2000    284.94141   -63471.141   -62962.019    5753.4467    5732.1626    5808.2339    5719.9435       65.172       65.172       65.172    2.6416983    127.58866 
    2500    303.75291   -63462.003   -62919.268    6221.2289    6188.6181    6271.6033    6203.4653       65.172       65.172       65.172    2.6181331    130.71146 
    3000    298.77846   -63458.281   -62924.435    6036.1637    6003.2057    6046.5349    6058.7505       65.172       65.172       65.172    2.6579932    129.65758 
    3500     313.4081   -63475.153   -62915.167    6015.1728      6042.02    5985.5043    6017.9942       65.172       65.172       65.172     2.759927    128.10822 
    4000    302.45931   -63452.888   -62912.465    5992.6757    5996.8514    5980.0853    6001.0904       65.172       65.172       65.172    2.7214656    129.74644 
    4500    301.98431   -63462.771   -62923.197    6006.7508    6073.9455    5975.7953    5970.5117       65.172       65.172       65.172     2.596396    129.25222 
    5000    289.81914    -63440.64   -62922.802    6086.8839    6068.2599    6045.1831    6147.2085       65.172       65.172       65.172    3.0430203    132.29324 
Loop time of 37.5702 on 4 procs for 5000 steps with 13824 atoms

Performance: 11.498 ns/day, 2.087 hours/ns, 133.084 timesteps/s
99.6% CPU use with 4 MPI tasks x no OpenMP threads

MPI task timing breakdown:
Section |  min time  |  avg time  |  max time  |%varavg| %total
---------------------------------------------------------------
Pair    | 35.871     | 36.095     | 36.651     |   5.4 | 96.07
Neigh   | 0          | 0          | 0          |   0.0 |  0.00
Comm    | 0.52714    | 1.0802     | 1.302      |  30.8 |  2.88
Output  | 0.0008202  | 0.00084538 | 0.00091567 |   0.0 |  0.00
Modify  | 0.29286    | 0.29541    | 0.29824    |   0.4 |  0.79
Other   |            | 0.09879    |            |       |  0.26

Nlocal:    3456 ave 3456 max 3456 min
Histogram: 4 0 0 0 0 0 0 0 0 0
Nghost:    3165 ave 3165 max 3165 min
Histogram: 4 0 0 0 0 0 0 0 0 0
Neighs:    0 ave 0 max 0 min
Histogram: 4 0 0 0 0 0 0 0 0 0
FullNghs:  96768 ave 96768 max 96768 min
Histogram: 4 0 0 0 0 0 0 0 0 0

Total # of neighbors = 387072
Ave neighs/atom = 28
Neighbor list builds = 0
Dangerous builds = 0
unfix           NVT

### NVE equlibration (de-correlate from thermostats)
fix             NVE all nve
run             5000
Per MPI rank memory allocation (min/avg/max) = 2.938 | 2.938 | 2.938 Mbytes
Step Temp PotEng TotEng Press Pxx Pyy Pzz Lx Ly Lz Fmax Fnorm 
    5000    289.81914    -63440.64   -62922.802    6086.8839    6068.2599    6045.1831    6147.2085       65.172       65.172       65.172    3.0430203    132.29324 
    5500    296.17181   -63452.012   -62922.823    6055.7393    6063.7644     6029.625    6073.8286       65.172       65.172       65.172    3.1202668    130.39354 
    6000    300.02334     -63458.9   -62922.829     6099.314    6091.5975    6140.0339    6066.3108       65.172       65.172       65.172    2.4822548    129.87851 
    6500     302.5094   -63463.349   -62922.836    5995.1898    6007.9721    5976.3774    6001.2199       65.172       65.172       65.172    2.7785414    129.34924 
    7000    309.36912   -63475.619   -62922.849    6098.7347    6107.7436    6108.2407    6080.2198       65.172       65.172       65.172    2.5087946    127.99574 
    7500    299.68233   -63458.292   -62922.831    5987.9393     6045.366    5975.4794    5942.9724       65.172       65.172       65.172    2.7095499    129.69605 
    8000     297.4117   -63454.233   -62922.829    6032.1086    5990.0937    6042.9675    6063.2648       65.172       65.172       65.172    2.7185845    130.13644 
    8500    297.95843   -63455.212   -62922.831    5995.5457    6017.6363    6019.0535    5949.9475       65.172       65.172       65.172    2.6300295     129.7514 
    9000    295.51785   -63450.851   -62922.831     5972.322    5958.2379    5942.4899    6016.2382       65.172       65.172       65.172    2.8809705    129.93633 
    9500    300.48686   -63459.731   -62922.832    6046.5679    6056.0831    6060.3657    6023.2548       65.172       65.172       65.172    2.6107043    129.70393 
   10000    300.57458   -63459.893   -62922.838    6002.4565    5960.7703    5998.1473    6048.4519       65.172       65.172       65.172    2.7325626    129.53804 
Loop time of 42.13 on 4 procs for 5000 steps with 13824 atoms

Performance: 10.254 ns/day, 2.341 hours/ns, 118.680 timesteps/s
99.6% CPU use with 4 MPI tasks x no OpenMP threads

MPI task timing breakdown:
Section |  min time  |  avg time  |  max time  |%varavg| %total
---------------------------------------------------------------
Pair    | 40.416     | 40.771     | 41.343     |   5.4 | 96.77
Neigh   | 0          | 0          | 0          |   0.0 |  0.00
Comm    | 0.50481    | 1.0698     | 1.4223     |  33.1 |  2.54
Output  | 0.00090036 | 0.00093219 | 0.00099926 |   0.0 |  0.00
Modify  | 0.17405    | 0.17694    | 0.1788     |   0.4 |  0.42
Other   |            | 0.1111     |            |       |  0.26

Nlocal:    3456 ave 3464 max 3452 min
Histogram: 2 0 1 0 0 0 0 0 0 1
Nghost:    3165 ave 3169 max 3157 min
Histogram: 1 0 0 0 0 0 0 1 0 2
Neighs:    0 ave 0 max 0 min
Histogram: 4 0 0 0 0 0 0 0 0 0
FullNghs:  96768 ave 96992 max 96656 min
Histogram: 2 0 1 0 0 0 0 0 0 1

Total # of neighbors = 387072
Ave neighs/atom = 28
Neighbor list builds = 0
Dangerous builds = 0
unfix           NVE

# -------------------- sample the data -----------------------

### vels/pos print frequency
variable	dt_dump equal 24

### print pos to hdf5 file
dump            pos all h5md ${dt_dump} pos.h5 position species
dump            pos all h5md 24 pos.h5 position species
dump_modify     pos sort id

### run to collect pos/vels
fix             NVE all nve
run             100000
Per MPI rank memory allocation (min/avg/max) = 2.953 | 2.953 | 2.953 Mbytes
Step Temp PotEng TotEng Press Pxx Pyy Pzz Lx Ly Lz Fmax Fnorm 
   10000    300.57458   -63459.893   -62922.838    6002.4565    5960.7703    5998.1473    6048.4519       65.172       65.172       65.172    2.7325626    129.53804 
   10500    302.71763    -63463.72   -62922.835    6082.9022     6002.336    6144.2559    6102.1147       65.172       65.172       65.172    2.9105467    130.32083 
   11000    294.83993   -63449.638   -62922.829     6047.853    6074.5756    5993.4956    6075.4877       65.172       65.172       65.172    2.7576017    130.33158 
   11500    294.51291   -63449.058   -62922.833    5946.3982       5942.8    5981.0386    5915.3561       65.172       65.172       65.172    2.7095278    130.34908 
   12000    304.00629   -63466.027    -62922.84    6057.6124    6065.0018    6048.5621    6059.2733       65.172       65.172       65.172    2.9009049    129.75417 
   12500    296.33843    -63452.32   -62922.833    5984.3314    5951.5607    6035.0512    5966.3824       65.172       65.172       65.172    2.6864605    130.33964 
   13000    303.53724   -63465.188   -62922.839    6073.8922    6146.9844    5972.9837    6101.7084       65.172       65.172       65.172    2.8060662    129.73837 
   13500     300.8375   -63460.359   -62922.834    6119.5501    6143.9737    6073.7717    6140.9049       65.172       65.172       65.172    2.8016434    130.43309 
   14000    295.71251   -63451.198    -62922.83    6021.7925    6025.0011    6013.1154     6027.261       65.172       65.172       65.172    2.8529158    130.46542 
   14500    304.97032   -63467.753   -62922.844    6072.8859    6037.4009    6057.7695    6123.4874       65.172       65.172       65.172    2.9010773    129.51219 
   15000    290.36733   -63441.644   -62922.827    5901.4537    5938.9814    5904.5789    5860.8008       65.172       65.172       65.172    2.5595654    131.07994 
   15500    300.57719   -63459.897   -62922.836    6071.0603      6059.16    6073.2791    6080.7418       65.172       65.172       65.172    3.0720367    130.15091 
   16000    297.56183   -63454.502   -62922.829    6072.7408    6125.2119     6075.888    6017.1225       65.172       65.172       65.172    2.6888238    130.88159 
   16500    302.95335   -63464.142   -62922.836    6121.6005    6146.8745    6147.4365    6070.4906       65.172       65.172       65.172    2.7472188    130.02529 
   17000    297.83621   -63454.993    -62922.83    6056.8893    6049.5023    6065.8518    6055.3137       65.172       65.172       65.172    2.6957318    130.83833 
   17500    299.84534   -63458.592   -62922.839    6025.1848    5972.7379    6068.8899    6033.9267       65.172       65.172       65.172    2.8387588    130.27492 
   18000    299.75415   -63458.421   -62922.832      6123.72    6133.8081    6094.3103    6143.0417       65.172       65.172       65.172    2.6281675    130.82408 
   18500     298.6982   -63456.543    -62922.84     5994.195    5981.4347     6038.506    5962.6444       65.172       65.172       65.172    2.5025726    130.02273 
   19000    306.13993   -63469.842   -62922.842     6154.026    6128.6098    6181.4362    6152.0319       65.172       65.172       65.172    2.9827589     129.7187 
   19500    298.40336   -63456.012   -62922.836     6055.053    6005.4639    6120.3081    6039.3869       65.172       65.172       65.172    2.9039939    130.29159 
   20000     297.7817   -63454.894   -62922.829    6096.5418    6062.2035     6127.149    6100.2729       65.172       65.172       65.172    3.0344141    130.91752 
   20500    300.30273   -63459.404   -62922.834    6104.8024     6142.813    6085.5099    6086.0841       65.172       65.172       65.172    2.7599611    130.33121 
   21000    296.07776   -63451.847   -62922.827     6087.386    6083.8268    6087.3769    6090.9543       65.172       65.172       65.172    2.7756804    131.26206 
   21500    299.38248   -63457.761   -62922.836    6051.5538    6054.3804    6078.3492    6021.9318       65.172       65.172       65.172    2.9623419    130.19095 
   22000    298.59091   -63456.345   -62922.834    6072.6382    6063.2432    6105.2864     6049.385       65.172       65.172       65.172    2.7908255    130.52746 
   22500    299.09525   -63457.245   -62922.832    6079.3083    6088.3139    6114.3558    6035.2551       65.172       65.172       65.172    2.7279812    130.46872 
   23000    300.22701   -63459.276   -62922.841    5981.1774    5920.6359    6028.1006    5994.7958       65.172       65.172       65.172    2.7570991    129.26542 
   23500     297.7783   -63454.889   -62922.829    6046.6749     6083.976    6011.5174    6044.5313       65.172       65.172       65.172    2.9226213    130.86926 
   24000    299.74735   -63458.413   -62922.835    6080.6986    6020.0752     6127.523    6094.4977       65.172       65.172       65.172    2.9285239    130.09492 
   24500    298.73516   -63456.604   -62922.835    6046.0777    6054.0643    6017.5482    6066.6207       65.172       65.172       65.172    2.8084171    130.10426 
   25000    301.66495   -63461.841   -62922.837    6083.2732    6084.0857    6026.8664    6138.8677       65.172       65.172       65.172    2.8493491    130.00495 
   25500     299.6249   -63458.187   -62922.828     6137.786    6180.3389    6122.3289    6110.6903       65.172       65.172       65.172    3.1702784    130.60227 
   26000    297.81403   -63454.955   -62922.832    6055.3298    6091.5773    6017.6252    6056.7869       65.172       65.172       65.172    2.6808591     130.5246 
   26500     301.5604   -63461.652   -62922.835     6072.256    6093.1335    6057.7981    6065.8365       65.172       65.172       65.172    2.9589657    129.94081 
   27000    301.29987   -63461.183   -62922.831    6103.5268    6089.8436    6060.7064    6160.0303       65.172       65.172       65.172    3.0119765    130.34304 
   27500    298.22894   -63455.694    -62922.83    6043.0811    6038.6314    5997.5892    6093.0226       65.172       65.172       65.172    2.9544541     130.5768 
   28000    298.01486   -63455.311   -62922.829    6037.4334    6047.7042    6052.4506    6012.1453       65.172       65.172       65.172    2.8559535    130.88739 
   28500    300.66824   -63460.064   -62922.841    6023.9696    6048.8119    6023.3701    5999.7269       65.172       65.172       65.172    2.6974758    129.58845 
   29000    299.21076   -63457.456   -62922.837    6052.5972    6034.6399    6074.1537    6048.9979       65.172       65.172       65.172    2.6559256    130.10803 
   29500    298.01471   -63455.313   -62922.832    6087.1576    6045.4536    6106.4112    6109.6081       65.172       65.172       65.172    2.5944263    130.67228 
   30000    296.76873   -63453.087   -62922.832    6085.8101    6064.6125    6060.3573    6132.4607       65.172       65.172       65.172    2.8342028    130.63875 
   30500    301.65892   -63461.831   -62922.838    6060.8738    6058.5585    6051.3579     6072.705       65.172       65.172       65.172    2.7854233    129.92414 
   31000    301.96139   -63462.372   -62922.839    6069.2843    6126.9071     6044.596      6036.35       65.172       65.172       65.172    3.0229238    129.99809 
   31500    297.78444   -63454.904   -62922.833    6041.8891    6062.2499    6003.1216    6060.2956       65.172       65.172       65.172    2.7179644     130.7878 
   32000    298.07736   -63455.425   -62922.831    6070.2269    6084.5026    6063.2505    6062.9276       65.172       65.172       65.172    2.8497873    130.88746 
   32500     300.2171   -63459.255   -62922.838    6021.9991    5986.6801    6040.5485    6038.7686       65.172       65.172       65.172    3.2198566    130.37089 
   33000    300.49401    -63459.75   -62922.839    6067.5412    6065.3374    6068.9704    6068.3159       65.172       65.172       65.172      2.74751     130.3015 
   33500    301.73071   -63461.965   -62922.843    6042.3429    6046.2854    6033.3075    6047.4359       65.172       65.172       65.172     2.638498    129.85637 
   34000    297.93565   -63455.179   -62922.838    6016.4677    6061.1667    6006.7016     5981.535       65.172       65.172       65.172    2.6772393    130.09065 
   34500    299.08179   -63457.222   -62922.833     6059.782    6082.8558    6039.1362    6057.3541       65.172       65.172       65.172    2.7315989    130.58555 
   35000     301.9155   -63462.291   -62922.839    6056.1054    6060.9656    6144.7453    5962.6053       65.172       65.172       65.172    2.6037781    129.75262 
   35500    298.56245   -63456.291    -62922.83    6106.2361    6048.3286    6126.1151    6144.2645       65.172       65.172       65.172    2.7536179    130.80284 
   36000    299.18969   -63457.418   -62922.837     6034.143    6050.5946    5979.3451    6072.4892       65.172       65.172       65.172    2.6800442    129.81283 
   36500    301.00889   -63460.666   -62922.834     6054.229    6070.1047    6033.2855    6059.2969       65.172       65.172       65.172    2.7728998    130.38343 
   37000    298.63567   -63456.426   -62922.835    6025.6338     6022.004    6043.4183    6011.4791       65.172       65.172       65.172    2.7140746    130.28281 
   37500    297.96004   -63455.214    -62922.83    6044.7553    6070.1758    6024.5369    6039.5532       65.172       65.172       65.172     2.642804     130.5035 
   38000    301.77037    -63462.03   -62922.838    6063.0324    6110.7131     6028.206    6050.1782       65.172       65.172       65.172    2.9138542      129.912 
   38500    299.83798   -63458.578   -62922.839    6032.7737    6019.1077    6055.8072    6023.4063       65.172       65.172       65.172    2.5671042    129.84083 
   39000    300.52423   -63459.802   -62922.837    6047.3243    5993.9987    6094.9711    6053.0032       65.172       65.172       65.172    2.5405327    130.00415 
   39500    300.33661   -63459.459   -62922.829    6077.0438    6049.7919    6100.6467     6080.693       65.172       65.172       65.172    2.8880319    130.86202 
   40000    299.62806     -63458.2   -62922.836     6070.817    6093.5508    6093.0883     6025.812       65.172       65.172       65.172    3.1221899    130.28801 
   40500    299.69678   -63458.321   -62922.834    6070.0942    6030.3509    6100.3195    6079.6124       65.172       65.172       65.172    2.9780504    130.17403 
   41000    296.20523   -63452.076   -62922.827       6041.3    6072.8197     6023.481    6027.5992       65.172       65.172       65.172    2.8563743    131.03766 
   41500    299.89619    -63458.68   -62922.836    6076.6601    6071.2351    6062.7661     6095.979       65.172       65.172       65.172    2.7279298    130.07293 
   42000    299.28773    -63457.59   -62922.833    6060.3581    6058.6878    6057.3631    6065.0234       65.172       65.172       65.172    2.9093617    130.22908 
   42500    298.76724   -63456.662   -62922.836    6013.3159    6024.6225    6032.4508    5982.8743       65.172       65.172       65.172    3.1507562    130.10498 
   43000    296.90239   -63453.327   -62922.833    6004.5582    5982.5677     6012.528     6018.579       65.172       65.172       65.172    3.1054951    130.46188 
   43500     301.6398   -63461.794   -62922.835    6101.4073    6089.0277    6090.0249    6125.1693       65.172       65.172       65.172    2.5342227    130.11832 
   44000    298.94042   -63456.965   -62922.829    6057.0147    6037.6245    6086.7402    6046.6795       65.172       65.172       65.172    2.8923375    130.65031 
   44500    301.50117   -63461.547   -62922.836    6055.9643    6070.6413    6019.7864    6077.4651       65.172       65.172       65.172    2.7520598    130.06692 
   45000    300.91274   -63460.498   -62922.838    6008.8629    5995.0843    6039.5674     5991.937       65.172       65.172       65.172    2.5887456    129.82427 
   45500    299.79703   -63458.501   -62922.835    6053.1898    6063.5698    6037.7705    6058.2292       65.172       65.172       65.172    2.8273329     130.2139 
   46000    297.51636   -63454.424   -62922.833     6035.288    6003.8967    6090.0774    6011.8899       65.172       65.172       65.172    2.8403669    130.45858 
   46500    300.87353   -63460.424   -62922.834    6081.7279    6125.5151     6042.236    6077.4326       65.172       65.172       65.172    2.8379664    130.43949 
   47000    299.83217   -63458.564   -62922.835    6030.5353    6055.7541    6052.2816    5983.5702       65.172       65.172       65.172    2.9271612    130.38817 
   47500    296.79688   -63453.135   -62922.829    6057.6482    6037.4446    6099.4605    6036.0396       65.172       65.172       65.172    2.6966974    131.08471 
   48000    300.05635   -63458.966   -62922.837    6053.8777    6001.9743    6063.1643    6096.4947       65.172       65.172       65.172    2.6431028    130.10627 
   48500    299.19694   -63457.428   -62922.834    6055.6339    6033.4523    6081.7874    6051.6619       65.172       65.172       65.172    2.5906461     130.3609 
   49000    299.85387   -63458.603   -62922.835    6051.5327    5985.3472    6070.5614    6098.6896       65.172       65.172       65.172    3.1910278    130.37667 
   49500    301.25741   -63461.113   -62922.837    6042.6911    6017.8702    6073.8696    6036.3336       65.172       65.172       65.172    2.8961075    130.10284 
   50000    300.85298   -63460.386   -62922.833    6063.3059    6100.3037    6043.5829     6046.031       65.172       65.172       65.172    2.7403419    130.44668 
   50500    298.45803   -63456.105   -62922.831    6104.5269    6102.3667    6097.9953    6113.2187       65.172       65.172       65.172    2.7147074    130.38866 
   51000    298.70465   -63456.551   -62922.836    5975.4059    6030.4382    5924.9938    5970.7858       65.172       65.172       65.172    2.8574168    129.96893 
   51500    300.26179    -63459.33   -62922.833    6060.6246    6114.8046    6002.7344    6064.3349       65.172       65.172       65.172    3.0606176    130.34649 
   52000    298.58039   -63456.326   -62922.833    6010.1092     6000.429    6014.5255     6015.373       65.172       65.172       65.172    2.7129361    130.32793 
   52500    301.01317   -63460.677   -62922.837    6087.4595    6090.5712    6061.5981    6110.2091       65.172       65.172       65.172    3.0234387    129.93017 
   53000     299.1074   -63457.267   -62922.833    6050.7561    6061.9707    6020.9037     6069.394       65.172       65.172       65.172    2.6154483    130.45831 
   53500    299.96358   -63458.798   -62922.834     6079.883    6094.5994    6053.1346    6091.9149       65.172       65.172       65.172    2.9972091    130.26689 
   54000    300.99997    -63460.65   -62922.834    6045.6165    6056.6526    6056.1723    6024.0244       65.172       65.172       65.172    2.9730042    130.23341 
   54500    300.18333   -63459.195   -62922.839    5992.5661    6015.2103    5985.4905    5976.9976       65.172       65.172       65.172    2.8355407    129.85184 
   55000    297.40504    -63454.22   -62922.828    6057.1909    6051.8506    6091.1374    6028.5846       65.172       65.172       65.172    3.0111647    130.93349 
   55500    299.74938   -63458.409   -62922.828     6081.929    6045.4807    6063.4172     6136.889       65.172       65.172       65.172    3.2047639    130.90635 
   56000    300.41273   -63459.601   -62922.835    6078.8122    6004.7454    6133.5177    6098.1733       65.172       65.172       65.172    2.6055876    130.31975 
   56500    297.99483    -63455.28   -62922.834    6011.8706    5997.7572    6019.4377    6018.4169       65.172       65.172       65.172    2.7766033    129.91253 
   57000    302.07911   -63462.576   -62922.832    6102.7255    6081.6446    6151.6474    6074.8843       65.172       65.172       65.172     2.857735    130.24625 
   57500    304.09955   -63466.192   -62922.838    6096.3574    6070.1443    61