8 atom conventional cell silicon

8 atoms

1 atom types

  0.00000000  5.43100000 xlo xhi
  0.00000000  5.43100000 ylo yhi
  0.00000000  5.43100000 zlo zhi

Masses

1 28.0855

Atoms

1 1   0.00000000   0.00000000   0.00000000
2 1   0.00000000   2.71550000   2.71550000
3 1   2.71550000   0.00000000   2.71550000
4 1   2.71550000   2.71550000   0.00000000
5 1   1.35775000   1.35775000   1.35775000
6 1   4.07325000   4.07325000   1.35775000
7 1   1.35775000   4.07325000   4.07325000
8 1   4.07325000   1.35775000   4.07325000





