rutils 12x12x16 supercell

13074 atoms
2 atom types

0.000 55.116 xlo xhi
0.000 55.116 ylo yhi
0.000 47.344 zlo zhi

Masses

1 47.867
2 15.999

Atoms # charge

    1   1  2.1960    2.296500000    2.296500000    1.479500000
    2   1  2.1960    0.000000000    0.000000000    0.000000000
    3   2 -1.0980    0.897196670    3.695803330    1.479500000
    4   2 -1.0980    3.695803330    0.897196670    1.479500000
    5   2 -1.0980    1.399303330    1.399303330    0.000000000
    6   2 -1.0980    3.193696670    3.193696670    0.000000000
    7   1  2.1960    6.889500000    2.296500000    1.479500000
    8   1  2.1960    4.593000000    0.000000000    0.000000000
    9   2 -1.0980    5.490196670    3.695803330    1.479500000
   10   2 -1.0980    8.288803330    0.897196670    1.479500000
   11   2 -1.0980    5.992303330    1.399303330    0.000000000
   12   2 -1.0980    7.786696670    3.193696670    0.000000000
   13   1  2.1960   11.482500000    2.296500000    1.479500000
   14   1  2.1960    9.186000000    0.000000000    0.000000000
   15   2 -1.0980   10.083196670    3.695803330    1.479500000
   16   2 -1.0980   12.881803330    0.897196670    1.479500000
   17   2 -1.0980   10.585303330    1.399303330    0.000000000
   18   2 -1.0980   12.379696670    3.193696670    0.000000000
   19   1  2.1960   16.075500000    2.296500000    1.479500000
   20   1  2.1960   13.779000000    0.000000000    0.000000000
   21   2 -1.0980   14.676196670    3.695803330    1.479500000
   22   2 -1.0980   17.474803330    0.897196670    1.479500000
   23   2 -1.0980   15.178303330    1.399303330    0.000000000
   24   2 -1.0980   16.972696670    3.193696670    0.000000000
   25   1  2.1960   20.668500000    2.296500000    1.479500000
   26   1  2.1960   18.372000000    0.000000000    0.000000000
   27   2 -1.0980   22.067803330    0.897196670    1.479500000
   28   2 -1.0980   19.771303330    1.399303330    0.000000000
   29   2 -1.0980   21.565696670    3.193696670    0.000000000
   30   1  2.1960   25.261500000    2.296500000    1.479500000
   31   1  2.1960   22.965000000    0.000000000    0.000000000
   32   2 -1.0980   23.862196670    3.695803330    1.479500000
   33   2 -1.0980   26.660803330    0.897196670    1.479500000
   34   2 -1.0980   24.364303330    1.399303330    0.000000000
   35   2 -1.0980   26.158696670    3.193696670    0.000000000
   36   1  2.1960   29.854500000    2.296500000    1.479500000
   37   1  2.1960   27.558000000    0.000000000    0.000000000
   38   2 -1.0980   28.455196670    3.695803330    1.479500000
   39   2 -1.0980   31.253803330    0.897196670    1.479500000
   40   2 -1.0980   28.957303330    1.399303330    0.000000000
   41   1  2.1960   34.447500000    2.296500000    1.479500000
   42   1  2.1960   32.151000000    0.000000000    0.000000000
   43   2 -1.0980   33.048196670    3.695803330    1.479500000
   44   2 -1.0980   35.846803330    0.897196670    1.479500000
   45   2 -1.0980   33.550303330    1.399303330    0.000000000
   46   2 -1.0980   35.344696670    3.193696670    0.000000000
   47   1  2.1960   39.040500000    2.296500000    1.479500000
   48   1  2.1960   36.744000000    0.000000000    0.000000000
   49   2 -1.0980   37.641196670    3.695803330    1.479500000
   50   2 -1.0980   40.439803330    0.897196670    1.479500000
   51   2 -1.0980   38.143303330    1.399303330    0.000000000
   52   1  2.1960   43.633500000    2.296500000    1.479500000
   53   1  2.1960   41.337000000    0.000000000    0.000000000
   54   2 -1.0980   42.234196670    3.695803330    1.479500000
   55   2 -1.0980   45.032803330    0.897196670    1.479500000
   56   2 -1.0980   42.736303330    1.399303330    0.000000000
   57   1  2.1960   48.226500000    2.296500000    1.479500000
   58   1  2.1960   45.930000000    0.000000000    0.000000000
   59   2 -1.0980   46.827196670    3.695803330    1.479500000
   60   2 -1.0980   49.625803330    0.897196670    1.479500000
   61   2 -1.0980   47.329303330    1.399303330    0.000000000
   62   2 -1.0980   49.123696670    3.193696670    0.000000000
   63   1  2.1960   52.819500000    2.296500000    1.479500000
   64   1  2.1960   50.523000000    0.000000000    0.000000000
   65   2 -1.0980   51.420196670    3.695803330    1.479500000
   66   2 -1.0980   54.218803330    0.897196670    1.479500000
   67   2 -1.0980   51.922303330    1.399303330    0.000000000
   68   1  2.1960    2.296500000    6.889500000    1.479500000
   69   1  2.1960    0.000000000    4.593000000    0.000000000
   70   2 -1.0980    0.897196670    8.288803330    1.479500000
   71   2 -1.0980    3.695803330    5.490196670    1.479500000
   72   2 -1.0980    1.399303330    5.992303330    0.000000000
   73   2 -1.0980    3.193696670    7.786696670    0.000000000
   74   1  2.1960    6.889500000    6.889500000    1.479500000
   75   1  2.1960    4.593000000    4.593000000    0.000000000
   76   2 -1.0980    5.490196670    8.288803330    1.479500000
   77   2 -1.0980    8.288803330    5.490196670    1.479500000
   78   2 -1.0980    5.992303330    5.992303330    0.000000000
   79   2 -1.0980    7.786696670    7.786696670    0.000000000
   80   1  2.1960   11.482500000    6.889500000    1.479500000
   81   1  2.1960    9.186000000    4.593000000    0.000000000
   82   2 -1.0980   10.083196670    8.288803330    1.479500000
   83   2 -1.0980   12.881803330    5.490196670    1.479500000
   84   2 -1.0980   10.585303330    5.992303330    0.000000000
   85   2 -1.0980   12.379696670    7.786696670    0.000000000
   86   1  2.1960   16.075500000    6.889500000    1.479500000
   87   1  2.1960   13.779000000    4.593000000    0.000000000
   88   2 -1.0980   14.676196670    8.288803330    1.479500000
   89   2 -1.0980   17.474803330    5.490196670    1.479500000
   90   2 -1.0980   15.178303330    5.992303330    0.000000000
   91   2 -1.0980   16.972696670    7.786696670    0.000000000
   92   1  2.1960   20.668500000    6.889500000    1.479500000
   93   1  2.1960   18.372000000    4.593000000    0.000000000
   94   2 -1.0980   19.269196670    8.288803330    1.479500000
   95   2 -1.0980   22.067803330    5.490196670    1.479500000
   96   2 -1.0980   19.771303330    5.992303330    0.000000000
   97   2 -1.0980   21.565696670    7.786696670    0.000000000
   98   1  2.1960   25.261500000    6.889500000    1.479500000
   99   1  2.1960   22.965000000    4.593000000    0.000000000
  100   2 -1.0980   23.862196670    8.288803330    1.479500000
  101   2 -1.0980   26.660803330    5.490196670    1.479500000
  102   2 -1.0980   26.158696670    7.786696670    0.000000000
  103   1  2.1960   29.854500000    6.889500000    1.479500000
  104   1  2.1960   27.558000000    4.593000000    0.000000000
  105   2 -1.0980   28.455196670    8.288803330    1.479500000
  106   2 -1.0980   31.253803330    5.490196670    1.479500000
  107   2 -1.0980   28.957303330    5.992303330    0.000000000
  108   2 -1.0980   30.751696670    7.786696670    0.000000000
  109   1  2.1960   34.447500000    6.889500000    1.479500000
  110   1  2.1960   32.151000000    4.593000000    0.000000000
  111   2 -1.0980   35.846803330    5.490196670    1.479500000
  112   2 -1.0980   35.344696670    7.786696670    0.000000000
  113   1  2.1960   39.040500000    6.889500000    1.479500000
  114   1  2.1960   36.744000000    4.593000000    0.000000000
  115   2 -1.0980   37.641196670    8.288803330    1.479500000
  116   2 -1.0980   40.439803330    5.490196670    1.479500000
  117   2 -1.0980   38.143303330    5.992303330    0.000000000
  118   2 -1.0980   39.937696670    7.786696670    0.000000000
  119   1  2.1960   43.633500000    6.889500000    1.479500000
  120   1  2.1960   41.337000000    4.593000000    0.000000000
  121   2 -1.0980   42.234196670    8.288803330    1.479500000
  122   2 -1.0980   45.032803330    5.490196670    1.479500000
  123   2 -1.0980   42.736303330    5.992303330    0.000000000
  124   2 -1.0980   44.530696670    7.786696670    0.000000000
  125   1  2.1960   48.226500000    6.889500000    1.479500000
  126   2 -1.0980   46.827196670    8.288803330    1.479500000
  127   2 -1.0980   49.625803330    5.490196670    1.479500000
  128   2 -1.0980   47.329303330    5.992303330    0.000000000
  129   2 -1.0980   49.123696670    7.786696670    0.000000000
  130   1  2.1960   52.819500000    6.889500000    1.479500000
  131   1  2.1960   50.523000000    4.593000000    0.000000000
  132   2 -1.0980   51.420196670    8.288803330    1.479500000
  133   2 -1.0980   54.218803330    5.490196670    1.479500000
  134   2 -1.0980   51.922303330    5.992303330    0.000000000
  135   2 -1.0980   53.716696670    7.786696670    0.000000000
  136   1  2.1960    2.296500000   11.482500000    1.479500000
  137   1  2.1960    0.000000000    9.186000000    0.000000000
  138   2 -1.0980    0.897196670   12.881803330    1.479500000
  139   2 -1.0980    3.695803330   10.083196670    1.479500000
  140   2 -1.0980    1.399303330   10.585303330    0.000000000
  141   2 -1.0980    3.193696670   12.379696670    0.000000000
  142   1  2.1960    6.889500000   11.482500000    1.479500000
  143   1  2.1960    4.593000000    9.186000000    0.000000000
  144   2 -1.0980    5.490196670   12.881803330    1.479500000
  145   2 -1.0980    8.288803330   10.083196670    1.479500000
  146   2 -1.0980    5.992303330   10.585303330    0.000000000
  147   2 -1.0980    7.786696670   12.379696670    0.000000000
  148   1  2.1960   11.482500000   11.482500000    1.479500000
  149   1  2.1960    9.186000000    9.186000000    0.000000000
  150   2 -1.0980   10.083196670   12.881803330    1.479500000
  151   2 -1.0980   12.881803330   10.083196670    1.479500000
  152   2 -1.0980   10.585303330   10.585303330    0.000000000
  153   2 -1.0980   12.379696670   12.379696670    0.000000000
  154   1  2.1960   16.075500000   11.482500000    1.479500000
  155   2 -1.0980   14.676196670   12.881803330    1.479500000
  156   2 -1.0980   17.474803330   10.083196670    1.479500000
  157   2 -1.0980   15.178303330   10.585303330    0.000000000
  158   2 -1.0980   16.972696670   12.379696670    0.000000000
  159   1  2.1960   20.668500000   11.482500000    1.479500000
  160   1  2.1960   18.372000000    9.186000000    0.000000000
  161   2 -1.0980   19.269196670   12.881803330    1.479500000
  162   2 -1.0980   22.067803330   10.083196670    1.479500000
  163   2 -1.0980   19.771303330   10.585303330    0.000000000
  164   2 -1.0980   21.565696670   12.379696670    0.000000000
  165   1  2.1960   25.261500000   11.482500000    1.479500000
  166   1  2.1960   22.965000000    9.186000000    0.000000000
  167   2 -1.0980   23.862196670   12.881803330    1.479500000
  168   2 -1.0980   26.660803330   10.083196670    1.479500000
  169   2 -1.0980   24.364303330   10.585303330    0.000000000
  170   2 -1.0980   26.158696670   12.379696670    0.000000000
  171   1  2.1960   29.854500000   11.482500000    1.479500000
  172   1  2.1960   27.558000000    9.186000000    0.000000000
  173   2 -1.0980   28.455196670   12.881803330    1.479500000
  174   2 -1.0980   31.253803330   10.083196670    1.479500000
  175   2 -1.0980   28.957303330   10.585303330    0.000000000
  176   1  2.1960   34.447500000   11.482500000    1.479500000
  177   1  2.1960   32.151000000    9.186000000    0.000000000
  178   2 -1.0980   33.048196670   12.881803330    1.479500000
  179   2 -1.0980   35.846803330   10.083196670    1.479500000
  180   2 -1.0980   33.550303330   10.585303330    0.000000000
  181   2 -1.0980   35.344696670   12.379696670    0.000000000
  182   1  2.1960   39.040500000   11.482500000    1.479500000
  183   1  2.1960   36.744000000    9.186000000    0.000000000
  184   2 -1.0980   37.641196670   12.881803330    1.479500000
  185   2 -1.0980   38.143303330   10.585303330    0.000000000
  186   2 -1.0980   39.937696670   12.379696670    0.000000000
  187   1  2.1960   43.633500000   11.482500000    1.479500000
  188   1  2.1960   41.337000000    9.186000000    0.000000000
  189   2 -1.0980   42.234196670   12.881803330    1.479500000
  190   2 -1.0980   45.032803330   10.083196670    1.479500000
  191   2 -1.0980   42.736303330   10.585303330    0.000000000
  192   2 -1.0980   44.530696670   12.379696670    0.000000000
  193   1  2.1960   48.226500000   11.482500000    1.479500000
  194   1  2.1960   45.930000000    9.186000000    0.000000000
  195   2 -1.0980   46.827196670   12.881803330    1.479500000
  196   2 -1.0980   49.625803330   10.083196670    1.479500000
  197   2 -1.0980   47.329303330   10.585303330    0.000000000
  198   2 -1.0980   49.123696670   12.379696670    0.000000000
  199   1  2.1960   52.819500000   11.482500000    1.479500000
  200   1  2.1960   50.523000000    9.186000000    0.000000000
  201   2 -1.0980   51.420196670   12.881803330    1.479500000
  202   2 -1.0980   54.218803330   10.083196670    1.479500000
  203   2 -1.0980   51.922303330   10.585303330    0.000000000
  204   2 -1.0980   53.716696670   12.379696670    0.000000000
  205   1  2.1960    2.296500000   16.075500000    1.479500000
  206   1  2.1960    0.000000000   13.779000000    0.000000000
  207   2 -1.0980    0.897196670   17.474803330    1.479500000
  208   2 -1.0980    3.695803330   14.676196670    1.479500000
  209   2 -1.0980    1.399303330   15.178303330    0.000000000
  210   2 -1.0980    3.193696670   16.972696670    0.000000000
  211   1  2.1960    6.889500000   16.075500000    1.479500000
  212   1  2.1960    4.593000000   13.779000000    0.000000000
  213   2 -1.0980    5.490196670   17.474803330    1.479500000
  214   2 -1.0980    5.992303330   15.178303330    0.000000000
  215   2 -1.0980    7.786696670   16.972696670    0.000000000
  216   1  2.1960   11.482500000   16.075500000    1.479500000
  217   1  2.1960    9.186000000   13.779000000    0.000000000
  218   2 -1.0980   10.083196670   17.474803330    1.479500000
  219   2 -1.0980   12.881803330   14.676196670    1.479500000
  220   2 -1.0980   10.585303330   15.178303330    0.000000000
  221   2 -1.0980   12.379696670   16.972696670    0.000000000
  222   1  2.1960   16.075500000   16.075500000    1.479500000
  223   1  2.1960   13.779000000   13.779000000    0.000000000
  224   2 -1.0980   14.676196670   17.474803330    1.479500000
  225   2 -1.0980   17.474803330   14.676196670    1.479500000
  226   2 -1.0980   15.178303330   15.178303330    0.000000000
  227   2 -1.0980   16.972696670   16.972696670    0.000000000
  228   1  2.1960   20.668500000   16.075500000    1.479500000
  229   1  2.1960   18.372000000   13.779000000    0.000000000
  230   2 -1.0980   19.269196670   17.474803330    1.479500000
  231   2 -1.0980   22.067803330   14.676196670    1.479500000
  232   2 -1.0980   19.771303330   15.178303330    0.000000000
  233   2 -1.0980   21.565696670   16.972696670    0.000000000
  234   1  2.1960   25.261500000   16.075500000    1.479500000
  235   1  2.1960   22.965000000   13.779000000    0.000000000
  236   2 -1.0980   23.862196670   17.474803330    1.479500000
  237   2 -1.0980   26.660803330   14.676196670    1.479500000
  238   2 -1.0980   24.364303330   15.178303330    0.000000000
  239   2 -1.0980   26.158696670   16.972696670    0.000000000
  240   1  2.1960   29.854500000   16.075500000    1.479500000
  241   1  2.1960   27.558000000   13.779000000    0.000000000
  242   2 -1.0980   28.455196670   17.474803330    1.479500000
  243   2 -1.0980   31.253803330   14.676196670    1.479500000
  244   2 -1.0980   28.957303330   15.178303330    0.000000000
  245   2 -1.0980   30.751696670   16.972696670    0.000000000
  246   1  2.1960   34.447500000   16.075500000    1.479500000
  247   1  2.1960   32.151000000   13.779000000    0.000000000
  248   2 -1.0980   33.048196670   17.474803330    1.479500000
  249   2 -1.0980   35.846803330   14.676196670    1.479500000
  250   2 -1.0980   33.550303330   15.178303330    0.000000000
  251   2 -1.0980   35.344696670   16.972696670    0.000000000
  252   1  2.1960   39.040500000   16.075500000    1.479500000
  253   1  2.1960   36.744000000   13.779000000    0.000000000
  254   2 -1.0980   37.641196670   17.474803330    1.479500000
  255   2 -1.0980   40.439803330   14.676196670    1.479500000
  256   2 -1.0980   38.143303330   15.178303330    0.000000000
  257   2 -1.0980   39.937696670   16.972696670    0.000000000
  258   1  2.1960   43.633500000   16.075500000    1.479500000
  259   1  2.1960   41.337000000   13.779000000    0.000000000
  260   2 -1.0980   42.234196670   17.474803330    1.479500000
  261   2 -1.0980   45.032803330   14.676196670    1.479500000
  262   2 -1.0980   42.736303330   15.178303330    0.000000000
  263   2 -1.0980   44.530696670   16.972696670    0.000000000
  264   1  2.1960   48.226500000   16.075500000    1.479500000
  265   1  2.1960   45.930000000   13.779000000    0.000000000
  266   2 -1.0980   46.827196670   17.474803330    1.479500000
  267   2 -1.0980   49.625803330   14.676196670    1.479500000
  268   2 -1.0980   47.329303330   15.178303330    0.000000000
  269   2 -1.0980   49.123696670   16.972696670    0.000000000
  270   1  2.1960   52.819500000   16.075500000    1.479500000
  271   1  2.1960   50.523000000   13.779000000    0.000000000
  272   2 -1.0980   51.420196670   17.474803330    1.479500000
  273   2 -1.0980   54.218803330   14.676196670    1.479500000
  274   2 -1.0980   51.922303330   15.178303330    0.000000000
  275   2 -1.0980   53.716696670   16.972696670    0.000000000
  276   1  2.1960    0.000000000   18.372000000    0.000000000
  277   2 -1.0980    0.897196670   22.067803330    1.479500000
  278   2 -1.0980    3.695803330   19.269196670    1.479500000
  279   2 -1.0980    1.399303330   19.771303330    0.000000000
  280   2 -1.0980    3.193696670   21.565696670    0.000000000
  281   1  2.1960    6.889500000   20.668500000    1.479500000
  282   1  2.1960    4.593000000   18.372000000    0.000000000
  283   2 -1.0980    5.490196670   22.067803330    1.479500000
  284   2 -1.0980    8.288803330   19.269196670    1.479500000
  285   2 -1.0980    7.786696670   21.565696670    0.000000000
  286   1  2.1960   11.482500000   20.668500000    1.479500000
  287   1  2.1960    9.186000000   18.372000000    0.000000000
  288   2 -1.0980   10.083196670   22.067803330    1.479500000
  289   2 -1.0980   12.881803330   19.269196670    1.479500000
  290   2 -1.0980   10.585303330   19.771303330    0.000000000
  291   2 -1.0980   12.379696670   21.565696670    0.000000000
  292   1  2.1960   16.075500000   20.668500000    1.479500000
  293   1  2.1960   13.779000000   18.372000000    0.000000000
  294   2 -1.0980   14.676196670   22.067803330    1.479500000
  295   2 -1.0980   17.474803330   19.269196670    1.479500000
  296   2 -1.0980   15.178303330   19.771303330    0.000000000
  297   2 -1.0980   16.972696670   21.565696670    0.000000000
  298   1  2.1960   20.668500000   20.668500000    1.479500000
  299   1  2.1960   18.372000000   18.372000000    0.000000000
  300   2 -1.0980   19.269196670   22.067803330    1.479500000
  301   2 -1.0980   22.067803330   19.269196670    1.479500000
  302   2 -1.0980   19.771303330   19.771303330    0.000000000
  303   2 -1.0980   21.565696670   21.565696670    0.000000000
  304   1  2.1960   25.261500000   20.668500000    1.479500000
  305   1  2.1960   22.965000000   18.372000000    0.000000000
  306   2 -1.0980   23.862196670   22.067803330    1.479500000
  307   2 -1.0980   26.660803330   19.269196670    1.479500000
  308   2 -1.0980   24.364303330   19.771303330    0.000000000
  309   2 -1.0980   26.158696670   21.565696670    0.000000000
  310   1  2.1960   29.854500000   20.668500000    1.479500000
  311   1  2.1960   27.558000000   18.372000000    0.000000000
  312   2 -1.0980   28.455196670   22.067803330    1.479500000
  313   2 -1.0980   31.253803330   19.269196670    1.479500000
  314   2 -1.0980   28.957303330   19.771303330    0.000000000
  315   2 -1.0980   30.751696670   21.565696670    0.000000000
  316   1  2.1960   34.447500000   20.668500000    1.479500000
  317   1  2.1960   32.151000000   18.372000000    0.000000000
  318   2 -1.0980   33.048196670   22.067803330    1.479500000
  319   2 -1.0980   35.846803330   19.269196670    1.479500000
  320   2 -1.0980   33.550303330   19.771303330    0.000000000
  321   2 -1.0980   35.344696670   21.565696670    0.000000000
  322   1  2.1960   39.040500000   20.668500000    1.479500000
  323   1  2.1960   36.744000000   18.372000000    0.000000000
  324   2 -1.0980   37.641196670   22.067803330    1.479500000
  325   2 -1.0980   40.439803330   19.269196670    1.479500000
  326   2 -1.0980   38.143303330   19.771303330    0.000000000
  327   2 -1.0980   39.937696670   21.565696670    0.000000000
  328   1  2.1960   43.633500000   20.668500000    1.479500000
  329   1  2.1960   41.337000000   18.372000000    0.000000000
  330   2 -1.0980   42.234196670   22.067803330    1.479500000
  331   2 -1.0980   42.736303330   19.771303330    0.000000000
  332   2 -1.0980   44.530696670   21.565696670    0.000000000
  333   1  2.1960   48.226500000   20.668500000    1.479500000
  334   1  2.1960   45.930000000   18.372000000    0.000000000
  335   2 -1.0980   46.827196670   22.067803330    1.479500000
  336   2 -1.0980   49.625803330   19.269196670    1.479500000
  337   2 -1.0980   47.329303330   19.771303330    0.000000000
  338   2 -1.0980   49.123696670   21.565696670    0.000000000
  339   1  2.1960   52.819500000   20.668500000    1.479500000
  340   1  2.1960   50.523000000   18.372000000    0.000000000
  341   2 -1.0980   51.420196670   22.067803330    1.479500000
  342   2 -1.0980   54.218803330   19.269196670    1.479500000
  343   2 -1.0980   51.922303330   19.771303330    0.000000000
  344   2 -1.0980   53.716696670   21.565696670    0.000000000
  345   1  2.1960    2.296500000   25.261500000    1.479500000
  346   1  2.1960    0.000000000   22.965000000    0.000000000
  347   2 -1.0980    0.897196670   26.660803330    1.479500000
  348   2 -1.0980    3.695803330   23.862196670    1.479500000
  349   2 -1.0980    1.399303330   24.364303330    0.000000000
  350   2 -1.0980    3.193696670   26.158696670    0.000000000
  351   1  2.1960    6.889500000   25.261500000    1.479500000
  352   1  2.1960    4.593000000   22.965000000    0.000000000
  353   2 -1.0980    5.490196670   26.660803330    1.479500000
  354   2 -1.0980    8.288803330   23.862196670    1.479500000
  355   2 -1.0980    5.992303330   24.364303330    0.000000000
  356   2 -1.0980    7.786696670   26.158696670    0.000000000
  357   1  2.1960   11.482500000   25.261500000    1.479500000
  358   1  2.1960    9.186000000   22.965000000    0.000000000
  359   2 -1.0980   10.083196670   26.660803330    1.479500000
  360   2 -1.0980   12.881803330   23.862196670    1.479500000
  361   2 -1.0980   10.585303330   24.364303330    0.000000000
  362   2 -1.0980   12.379696670   26.158696670    0.000000000
  363   1  2.1960   16.075500000   25.261500000    1.479500000
  364   1  2.1960   13.779000000   22.965000000    0.000000000
  365   2 -1.0980   14.676196670   26.660803330    1.479500000
  366   2 -1.0980   17.474803330   23.862196670    1.479500000
  367   2 -1.0980   15.178303330   24.364303330    0.000000000
  368   2 -1.0980   16.972696670   26.158696670    0.000000000
  369   1  2.1960   20.668500000   25.261500000    1.479500000
  370   1  2.1960   18.372000000   22.965000000    0.000000000
  371   2 -1.0980   19.269196670   26.660803330    1.479500000
  372   2 -1.0980   22.067803330   23.862196670    1.479500000
  373   2 -1.0980   19.771303330   24.364303330    0.000000000
  374   2 -1.0980   21.565696670   26.158696670    0.000000000
  375   1  2.1960   25.261500000   25.261500000    1.479500000
  376   1  2.1960   22.965000000   22.965000000    0.000000000
  377   2 -1.0980   23.862196670   26.660803330    1.479500000
  378   2 -1.0980   26.660803330   23.862196670    1.479500000
  379   2 -1.0980   24.364303330   24.364303330    0.000000000
  380   2 -1.0980   26.158696670   26.158696670    0.000000000
  381   1  2.1960   29.854500000   25.261500000    1.479500000
  382   1  2.1960   27.558000000   22.965000000    0.000000000
  383   2 -1.0980   28.455196670   26.660803330    1.479500000
  384   2 -1.0980   31.253803330   23.862196670    1.479500000
  385   2 -1.0980   28.957303330   24.364303330    0.000000000
  386   2 -1.0980   30.751696670   26.158696670    0.000000000
  387   1  2.1960   34.447500000   25.261500000    1.479500000
  388   1  2.1960   32.151000000   22.965000000    0.000000000
  389   2 -1.0980   33.048196670   26.660803330    1.479500000
  390   2 -1.0980   35.846803330   23.862196670    1.479500000
  391   2 -1.0980   33.550303330   24.364303330    0.000000000
  392   2 -1.0980   35.344696670   26.158696670    0.000000000
  393   1  2.1960   39.040500000   25.261500000    1.479500000
  394   1  2.1960   36.744000000   22.965000000    0.000000000
  395   2 -1.0980   37.641196670   26.660803330    1.479500000
  396   2 -1.0980   40.439803330   23.862196670    1.479500000
  397   2 -1.0980   38.143303330   24.364303330    0.000000000
  398   2 -1.0980   39.937696670   26.158696670    0.000000000
  399   1  2.1960   43.633500000   25.261500000    1.479500000
  400   1  2.1960   41.337000000   22.965000000    0.000000000
  401   2 -1.0980   45.032803330   23.862196670    1.479500000
  402   2 -1.0980   42.736303330   24.364303330    0.000000000
  403   2 -1.0980   44.530696670   26.158696670    0.000000000
  404   1  2.1960   48.226500000   25.261500000    1.479500000
  405   1  2.1960   45.930000000   22.965000000    0.000000000
  406   2 -1.0980   46.827196670   26.660803330    1.479500000
  407   2 -1.0980   49.625803330   23.862196670    1.479500000
  408   2 -1.0980   47.329303330   24.364303330    0.000000000
  409   2 -1.0980   49.123696670   26.158696670    0.000000000
  410   1  2.1960   52.819500000   25.261500000    1.479500000
  411   1  2.1960   50.523000000   22.965000000    0.000000000
  412   2 -1.0980   51.420196670   26.660803330    1.479500000
  413   2 -1.0980   54.218803330   23.862196670    1.479500000
  414   2 -1.0980   51.922303330   24.364303330    0.000000000
  415   2 -1.0980   53.716696670   26.158696670    0.000000000
  416   1  2.1960    2.296500000   29.854500000    1.479500000
  417   1  2.1960    0.000000000   27.558000000    0.000000000
  418   2 -1.0980    0.897196670   31.253803330    1.479500000
  419   2 -1.0980    3.695803330   28.455196670    1.479500000
  420   2 -1.0980    1.399303330   28.957303330    0.000000000
  421   2 -1.0980    3.193696670   30.751696670    0.000000000
  422   1  2.1960    6.889500000   29.854500000    1.479500000
  423   1  2.1960    4.593000000   27.558000000    0.000000000
  424   2 -1.0980    5.490196670   31.253803330    1.479500000
  425   2 -1.0980    8.288803330   28.455196670    1.479500000
  426   2 -1.0980    5.992303330   28.957303330    0.000000000
  427   2 -1.0980    7.786696670   30.751696670    0.000000000
  428   1  2.1960   11.482500000   29.854500000    1.479500000
  429   1  2.1960    9.186000000   27.558000000    0.000000000
  430   2 -1.0980   10.083196670   31.253803330    1.479500000
  431   2 -1.0980   12.881803330   28.455196670    1.479500000
  432   2 -1.0980   10.585303330   28.957303330    0.000000000
  433   2 -1.0980   12.379696670   30.751696670    0.000000000
  434   1  2.1960   16.075500000   29.854500000    1.479500000
  435   1  2.1960   13.779000000   27.558000000    0.000000000
  436   2 -1.0980   14.676196670   31.253803330    1.479500000
  437   2 -1.0980   17.474803330   28.455196670    1.479500000
  438   2 -1.0980   15.178303330   28.957303330    0.000000000
  439   2 -1.0980   16.972696670   30.751696670    0.000000000
  440   1  2.1960   20.668500000   29.854500000    1.479500000
  441   1  2.1960   18.372000000   27.558000000    0.000000000
  442   2 -1.0980   19.269196670   31.253803330    1.479500000
  443   2 -1.0980   22.067803330   28.455196670    1.479500000
  444   2 -1.0980   19.771303330   28.957303330    0.000000000
  445   2 -1.0980   21.565696670   30.751696670    0.000000000
  446   1  2.1960   25.261500000   29.854500000    1.479500000
  447   1  2.1960   22.965000000   27.558000000    0.000000000
  448   2 -1.0980   23.862196670   31.253803330    1.479500000
  449   2 -1.0980   26.660803330   28.455196670    1.479500000
  450   2 -1.0980   24.364303330   28.957303330    0.000000000
  451   2 -1.0980   26.158696670   30.751696670    0.000000000
  452   1  2.1960   29.854500000   29.854500000    1.479500000
  453   1  2.1960   27.558000000   27.558000000    0.000000000
  454   2 -1.0980   28.455196670   31.253803330    1.479500000
  455   2 -1.0980   31.253803330   28.455196670    1.479500000
  456   2 -1.0980   28.957303330   28.957303330    0.000000000
  457   2 -1.0980   30.751696670   30.751696670    0.000000000
  458   1  2.1960   34.447500000   29.854500000    1.479500000
  459   1  2.1960   32.151000000   27.558000000    0.000000000
  460   2 -1.0980   33.048196670   31.253803330    1.479500000
  461   2 -1.0980   35.846803330   28.455196670    1.479500000
  462   2 -1.0980   33.550303330   28.957303330    0.000000000
  463   2 -1.0980   35.344696670   30.751696670    0.000000000
  464   1  2.1960   39.040500000   29.854500000    1.479500000
  465   1  2.1960   36.744000000   27.558000000    0.000000000
  466   2 -1.0980   37.641196670   31.253803330    1.479500000
  467   2 -1.0980   40.439803330   28.455196670    1.479500000
  468   2 -1.0980   38.143303330   28.957303330    0.000000000
  469   2 -1.0980   39.937696670   30.751696670    0.000000000
  470   1  2.1960   43.633500000   29.854500000    1.479500000
  471   1  2.1960   41.337000000   27.558000000    0.000000000
  472   2 -1.0980   42.234196670   31.253803330    1.479500000
  473   2 -1.0980   45.032803330   28.455196670    1.479500000