LAMMPS data file via write_data, version 29 Sep 2021, timestep = 114000

7200 atoms
2 atom types

0.4622923888674322 45.4677076111345 xlo xhi
0.45247133113752014 45.477528668861794 ylo yhi
-0.35505513028539326 35.86305513028519 zlo zhi

Masses

1 47.867
2 15.999

Pair Coeffs # buck/coul/long

1 31120.4 0.154 5.2469
2 11782.9 0.234 30.2222

Atoms # charge

1322 1 2.196 0.4698311020235441 9.44385721348758 5.763700229241885 0 0 0
62 1 2.196 0.47778920760936217 4.951547427310002 35.844808265119234 0 0 -1
668 1 2.196 5.01840649271807 4.945737390799437 2.7225111016244106 0 0 0
1268 1 2.196 4.972297836029584 4.98323975743741 5.677841219941544 0 0 0
5 2 -1.098 1.7689540801406947 1.8772973251009617 -0.27704879397976573 0 0 0
605 2 -1.098 1.7986805717800782 1.814055487693625 2.6333379970749524 0 0 0
1205 2 -1.098 1.7734238244270728 1.838408003684604 5.681338629645998 0 0 0
665 2 -1.098 1.8043428336434522 6.35657603162778 2.673808061913839 0 0 0
1265 2 -1.098 1.9804143601172413 6.27130411047306 5.846862930840006 0 0 0
11 2 -1.098 6.340681035362738 1.7798835034440477 35.861666633249634 0 0 -1
611 2 -1.098 6.312120697909144 1.8699153819406065 2.677829232355068 0 0 0
1211 2 -1.098 6.401461384353424 1.7537925514713348 5.755047879470129 0 0 0
671 2 -1.098 6.43187038396374 6.329966852687415 2.733569885780024 0 0 0
1271 2 -1.098 6.3796190538974855 6.384673530749278 5.751414291067045 0 0 0
3 2 -1.098 1.2475295587466615 4.041091641967608 1.120928006664453 0 0 0
603 2 -1.098 1.242757889455106 4.142245689073544 4.282676758502337 0 0 0
63 2 -1.098 1.2623299210153736 8.573751534286151 1.2030943830541927 0 0 0
663 2 -1.098 1.372861036423311 8.505526857185224 4.335888121953724 0 0 0
9 2 -1.098 5.938968647205106 4.055507959456138 1.208510355008962 0 0 0
609 2 -1.098 5.8689396901087205 4.1483701587857755 4.254906617318548 0 0 0
69 2 -1.098 5.777952608005515 8.515502191627451 1.2077640520322153 0 0 0
669 2 -1.098 5.756710224485193 8.413217358731456 4.224331488243599 0 0 0
4 2 -1.098 4.09711297423547 1.4324731142171871 1.3033167145290792 0 0 0
604 2 -1.098 4.046428595183098 1.3788019022373024 4.166930050002287 0 0 0
64 2 -1.098 4.061839402679206 5.793798674599631 1.184079795719476 0 0 0
664 2 -1.098 4.108557228542259 5.928393924923617 4.192636412787359 0 0 0
1 1 2.196 2.7079156921619143 2.7392860823911103 1.2042459449958283 0 0 0
601 1 2.196 2.635858178295967 2.768412815743728 4.204959394912562 0 0 0
61 1 2.196 2.673208041023052 7.253969694809347 1.1385317877660854 0 0 0
661 1 2.196 2.757188947031381 7.2282447929832845 4.224527243490131 0 0 0
7 1 2.196 7.256129320790794 2.677450035133186 1.182290628780325 0 0 0
607 1 2.196 7.23105478937246 2.6955274767722908 4.179752029442506 0 0 0
67 1 2.196 7.215764539102652 7.231038135563431 1.2298520925759795 0 0 0
667 1 2.196 7.290849101206746 7.210731912700643 4.259218153436681 0 0 0
6 2 -1.098 3.533476687601401 3.6188251831809226 -0.3422836620746099 0 0 0
606 2 -1.098 3.6445087332732315 3.635418296486442 2.7310478868426906 0 0 0
1206 2 -1.098 3.5864769605565185 3.65978610180194 5.713330804239515 0 0 0
66 2 -1.098 3.5431671782833907 8.100922855787893 35.81525609256123 0 0 -1
666 2 -1.098 3.4969345361981934 8.122368014062637 2.6405640825006165 0 0 0
1266 2 -1.098 3.5465851417650693 8.126814619736253 5.796696400286496 0 0 0
6692 1 2.196 22.917555199508502 4.909102050019582 32.73687972201891 0 0 0
4862 1 2.196 0.5249714301797042 4.945149389748996 23.703299170490773 0 0 0
608 1 2.196 4.9289654815448465 0.4909307929029984 2.766291908900212 0 0 0
8 1 2.196 4.897455004987941 0.46001947622755446 -0.2593003037793684 0 0 0
74 1 2.196 9.319294674812776 4.930469999979708 35.82078184026766 0 0 -1
674 1 2.196 9.379783576589613 4.932018167621766 2.7042197740443625 0 0 0
1274 1 2.196 9.482641865056548 4.862115140759277 5.685583306248615 0 0 0
20 1 2.196 13.907853619437228 0.4871685025334705 35.81450578260013 0 0 -1
80 1 2.196 13.96342926727563 5.013142192572377 -0.3453342527240639 0 0 0
680 1 2.196 14.006658953328406 4.9538647973052 2.6066310629350586 0 0 0
1280 1 2.196 13.970768829689513 4.963627173544978 5.691841890554811 0 0 0
17 2 -1.098 10.823292089424386 1.74573278689203 -0.33580544954838726 0 0 0
617 2 -1.098 10.811712794128178 1.77909099781129 2.677619455843569 0 0 0
1217 2 -1.098 10.812584148336011 1.8615128904523037 5.6606928767082865 0 0 0
77 2 -1.098 10.749801595934105 6.31134676252115 35.80870886839586 0 0 -1
677 2 -1.098 10.833734829373164 6.240473039695786 2.732892882204972 0 0 0
1277 2 -1.098 10.871754501630333 6.222189267964597 5.730033018131674 0 0 0
623 2 -1.098 15.250809518525738 1.9628178279690718 2.653339951788692 0 0 0
1223 2 -1.098 15.388567904403976 1.9425099550977938 5.647075288462838 0 0 0
83 2 -1.098 15.307212810867815 6.297716824172894 35.80818674889538 0 0 -1
683 2 -1.098 15.378430586942683 6.314874046871019 2.545901949228171 0 0 0
1283 2 -1.098 15.370525553663951 6.32677361775943 5.601431748203113 0 0 0
15 2 -1.098 10.253015581349326 4.063501787051996 1.1110109672065331 0 0 0
615 2 -1.098 10.267325982410027 3.9272946937583786 4.231987444144949 0 0 0
75 2 -1.098 10.350638374137358 8.57861054396126 1.1179038245479704 0 0 0
675 2 -1.098 10.375616605237658 8.504654216597753 4.270063168711705 0 0 0
21 2 -1.098 14.970083649248386 4.137089711022375 1.1068662859088496 0 0 0
621 2 -1.098 14.913001385626616 4.04909494672286 4.121840993076576 0 0 0
81 2 -1.098 14.82019596419529 8.559828623360946 1.1556585151456045 0 0 0
681 2 -1.098 14.95147365375509 8.591782230920227 4.12773121973134 0 0 0
10 2 -1.098 8.613725500850336 1.341731812783195 1.1335145791144343 0 0 0
610 2 -1.098 8.593779144687696 1.382541578521869 4.217273321997467 0 0 0
70 2 -1.098 8.54859222842817 5.825247526418022 1.1586305358286264 0 0 0
670 2 -1.098 8.643583457425112 5.799846448981403 4.267117461162204 0 0 0
16 2 -1.098 13.12581423056297 1.339248355844855 1.1205075314394801 0 0 0
616 2 -1.098 13.024803688209719 1.3904440495127126 4.1415773361768435 0 0 0
76 2 -1.098 13.045328661766305 5.787305162424381 1.1101758133196378 0 0 0
676 2 -1.098 13.132792354335987 5.780796163341801 4.1148672724309 0 0 0
13 1 2.196 11.66878709765092 2.7467751130609073 1.1542555660819274 0 0 0
613 1 2.196 11.67959614966317 2.6953815607644303 4.172579797771414 0 0 0
73 1 2.196 11.694051416140514 7.155287119038745 1.1395189852223147 0 0 0
673 1 2.196 11.755153257698076 7.128538609725836 4.178019258213696 0 0 0
12 2 -1.098 7.982929862675979 3.594054282039588 -0.32957321790237887 0 0 0
612 2 -1.098 8.130138784591546 3.5504780761339676 2.6447843053860107 0 0 0
1212 2 -1.098 8.040715056183252 3.66809396389004 5.691062862601125 0 0 0
72 2 -1.098 8.08325760601642 8.139451804215323 -0.2970370536375042 0 0 0
672 2 -1.098 8.12772831882676 8.069483365482451 2.6709961612918653 0 0 0
1272 2 -1.098 8.066291007062288 8.106677297732038 5.761089073626458 0 0 0
18 2 -1.098 12.592660458797102 3.635062856224893 35.81474444860816 0 0 -1
618 2 -1.098 12.506715188034146 3.6507888075712707 2.6522957672610055 0 0 0
1218 2 -1.098 12.615274715758408 3.564948786043957 5.674455381071975 0 0 0
678 2 -1.098 12.691835657516625 7.955566545417647 2.7146887903624255 0 0 0
1278 2 -1.098 12.668815912278799 8.066276227668283 5.6513845430926235 0 0 0
740 1 2.196 13.981263547121562 9.40195395091923 2.7043403842489835 0 0 0
1334 1 2.196 9.471578426319216 9.431437717388246 5.803339925799392 0 0 0
14 1 2.196 9.485846703956097 0.4620625522033863 35.817820597068184 0 0 -1
23 2 -1.098 15.341455636985108 1.8088367173141426 35.824290566549934 0 0 -1
686 1 2.196 18.512699845025622 4.942694108056559 2.6149772166684344 0 0 0
1286 1 2.196 18.50838128622316 4.968389461411093 5.688397376375558 0 0 0
29 2 -1.098 19.906967524320173 1.8587984066727465 -0.2915931556782466 0 0 0
629 2 -1.098 19.947209819576365 1.7772740878252768 2.6112258210069883 0 0 0
1229 2 -1.098 19.716382618077184 1.876617128430484 5.7051743116959335 0 0 0
689 2 -1.098 19.87251245267716 6.182537662757061 2.669557758071784 0 0 0
1289 2 -1.098 19.885028255416096 6.312601868545435 5.611275293212765 0 0 0
27 2 -1.098 19.42303876903004 4.1109423797729985 1.151466667908001 0 0 0
627 2 -1.098 19.27586965272468 3.928086164121671 4.124373893428189 0 0 0
87 2 -1.098 19.28449069993829 8.408226404765967 1.135847709463069 0 0 0
687 2 -1.098 19.383919870737184 8.54495947447647 4.1581024423173885 0 0 0
22 2 -1.098 17.561819620678257 1.353272137192477 1.0987268403130583 0 0 0
622 2 -1.098 17.636455645779222 1.2827578621182303 4.128394443850514 0 0 0
82 2 -1.098 17.6839760513432 5.863514823726279 1.1315493271699888 0 0 0
682 2 -1.098 17.637844841061526 5.795998867743065 4.110403712289236 0 0 0
28 2 -1.098 22.160704753696756 1.2534116339961194 1.108800220416843 0 0 0
628 2 -1.098 22.083316513632724 1.364513129264297 4.168929476862821 0 0 0
88 2 -1.098 22.05272205984291 5.692897249343865 1.1669629125700833 0 0 0
688 2 -1.098 22.138329093872716 5.772329306749587 4.147049466458578 0 0 0
19 1 2.196 16.20234251196358 2.725045391108271 1.0961162043179566 0 0 0
619 1 2.196 16.257055369368032 2.779035002686001 4.128077548354927 0 0 0
79 1 2.196 16.201907880285667 7.200561664920325 1.1047437825275361 0 0 0
679 1 2.196 16.253033188290352 7.17945568230746 4.094741962436299 0 0 0
25 1 2.196 20.848338038090596 2.7423999460904085 1.1228073220565102 0 0 0
625 1 2.196 20.7278910946228 2.6961912280599543 4.166925423462437 0 0 0
85 1 2.196 20.734008937028165 7.021735608959981 1.1292367702317807 0 0 0
685 1 2.196 20.798571819515136 7.152090222700876 4.165048582862287 0 0 0
24 2 -1.098 17.140209873167215 3.586718391039082 35.85368792561926 0 0 -1
624 2 -1.098 17.18649633830884 3.5345734345449986 2.574670348703559 0 0 0
1224 2 -1.098 17.152489454478065 3.6465007525488513 5.77636018156551 0 0 0
684 2 -1.098 17.10276627291952 7.998865573868046 2.6212535726459203 0 0 0
1284 2 -1.098 17.12214445864543 8.042766926681363 5.5927176483748955 0 0 0
30 2 -1.098 21.66469232308223 3.6205445273449017 35.76938564193962 0 0 -1
630 2 -1.098 21.691451956117387 3.539827667518173 2.6693116694770853 0 0 0
1230 2 -1.098 21.486566526426234 3.6054491840508267 5.711348647933871 0 0 0
90 2 -1.098 21.653064458233438 8.047434312920196 -0.27148936317997324 0 0 0
690 2 -1.098 21.580151521381616 8.02195801386084 2.6363796156522907 0 0 0
1290 2 -1.098 21.68311785675933 8.066477056727953 5.657552179446891 0 0 0
6622 2 -1.098 17.658040899316394 1.3740696604168303 34.303223985882106 0 0 0
1346 1 2.196 18.46957240846284 9.434418811602946 5.607706741672957 0 0 0
746 1 2.196 18.487495819412082 9.394432617515982 2.632951536843012 0 0 0
146 1 2.196 18.515084548988117 9.367387270237073 -0.3206222451600985 0 0 0
1862 1 2.196 0.5054417686503522 4.919482804862178 8.724241620246193 0 0 0
2462 1 2.196 0.46311455654113204 4.95563405659243 11.750713041491274 0 0 0
1868 1 2.196 4.975143523339309 4.973584149640949 8.741745763129767 0 0 0
2468 1 2.196 5.067025107895276 5.050151676759728 11.777722242969478 0 0 0
1805 2 -1.098 1.8329668968589603 1.8430870201930474 8.745120594213418 0 0 0
2405 2 -1.098 1.8732156912427134 1.8464594470967697 11.664177626248723 0 0 0
1865 2 -1.098 1.7376413444837193 6.290462186503412 8.694056149643739 0 0 0
2465 2 -1.098 1.832035804726106 6.303298750601021 11.673469531729646 0 0 0
1811 2 -1.098 6.406506001088066 1.9186807452072887 8.74350336485702 0 0 0
2411 2 -1.098 6.392257880585525 1.7775690065518075 11.667274368922453 0 0 0
1871 2 -1.098 6.4192764370433695 6.369969638003331 8.84043318176429 0 0 0
2471 2 -1.098 6.366031268640427 6.402207900651191 11.703972275667835 0 0 0
1203 2 -1.098 1.2783210125443878 4.102563489638566 7.247207147719195 0 0 0
1803 2 -1.098 1.3504005157787393 4.136760049021619 10.289775310422614 0 0 0
2403 2 -1.098 1.3795964318616907 4.016855463782776 13.250242319098646 0 0 0
1263 2 -1.098 1.4349509494167991 8.595961126321518 7.25085562589939 0 0 0
1863 2 -1.098 1.3102600157223039 8.562870490646272 10.235712428215937 0 0 0
2463 2 -1.098 1.2891878217579729 8.518790831574872 13.273455507189905 0 0 0
1209 2 -1.098 5.7855478473581154 4.108318859648772 7.20219917140264 0 0 0
1809 2 -1.098 5.884701891006342 4.080947608112439 10.216962150064607 0 0 0
2409 2 -1.098 5.795382214731971 4.060330694414072 13.24245165247859 0 0 0
1269 2 -1.098 5.88059027517916 8.688331583033515 7.216311825252426 0 0 0
1869 2 -1.098 5.99544395674019 8.56773855395892 10.288406995090087 0 0 0
2469 2 -1.098 5.830152140927168 8.591530955685096 13.287211526382821 0 0 0
1204 2 -1.098 4.00055012238697 1.3282587383820252 7.264778509548295 0 0 0
1804 2 -1.098 4.155346158259006 1.4001138033874447 10.255718520392119 0 0 0
2404 2 -1.098 4.112130587362488 1.3205866984655654 13.212509734486812 0 0 0
1264 2 -1.098 4.139913491800096 5.908833941194624 7.1754876277997015 0 0 0
1864 2 -1.098 4.066920540730784 5.910605677083683 10.208173338091305 0 0 0
2464 2 -1.098 4.15579547154617 5.895884137713778 13.253944838474347 0 0 0
1201 1 2.196 2.6718380451656456 2.7149807322817425 7.2190344421982555 0 0 0
1801 1 2.196 2.7604883987669173 2.7315585222141623 10.218120800587236 0 0 0
2401 1 2.196 2.7968860836544427 2.7302506196785026 13.141838661344183 0 0 0
1261 1 2.196 2.7207405775554085 7.202094438594535 7.300889551796656 0 0 0
1861 1 2.196 2.673924622485402 7.270073090509569 10.269752344663619 0 0 0
2461 1 2.196 2.6903074396047915 7.242539544511056 13.260456581511404 0 0 0
1207 1 2.196 7.290530053450823 2.7332848429177052 7.204548124645141 0 0 0
1807 1 2.196 7.312245841688294 2.7242812309163362 10.223430769803217 0 0 0
2407 1 2.196 7.19588265319355 2.7315492037649354 13.223185725170739 0 0 0
1267 1 2.196 7.225017392171179 7.222293489824897 7.233222606702459 0 0 0
1867 1 2.196 7.311528403142782 7.2423047342606255 10.23474394628016 0 0 0
2467 1 2.196 7.232769494052633 7.3232359769616835 13.163726768183468 0 0 0
1806 2 -1.098 3.536531310430376 3.671061194586284 8.709350340601233 0 0 0
2406 2 -1.098 3.6138556254691205 3.617002338374552 11.68681275235608 0 0 0
1866 2 -1.098 3.6193700454729467 8.133005555739206 8.7918797220927 0 0 0
2466 2 -1.098 3.6228812249365907 8.122513716374607 11.84681249703104 0 0 0
5462 1 2.196 0.5165796306472998 5.000984966631114 26.78871548871914 0 0 0
1928 1 2.196 5.020836253839825 9.446743628684182 8.722510456604681 0 0 0
1874 1 2.196 9.525233669563704 4.934551339569663 8.740044417847026 0 0 0
2474 1 2.196 9.47534552866476 4.872442204398983 11.789442518957092 0 0 0
1880 1 2.196 13.93156319635962 4.938076461507458 8.760150246687514 0 0 0
2480 1 2.196 13.957672339085624 5.001967716036597 11.747212899685154 0 0 0
1817 2 -1.098 10.84441494413274 1.7647393783682597 8.825796210672996 0 0 0
2417 2 -1.098 10.892086756961424 1.7881431477235494 11.647723304491441 0 0 0
1877 2 -1.098 10.860526281081478 6.315723551540586 8.704443306882803 0 0 0
2477 2 -1.098 10.925191594649466 6.1997380476682205 11.746051750156749 0 0 0
1823 2 -1.098 15.324361655919821 1.879090559127047 8.70657886316435 0 0 0
2423 2 -1.098 15.546922424588919 1.6575249934429432 11.587355938116525 0 0 0
1883 2 -1.098 15.322989039770473 6.17851429204424 8.637957344768283 0 0 0
2483 2 -1.098 15.395901992427682 6.290115353233488 11.62436160099778 0 0 0
1215 2 -1.098 10.37539061835969 4.037116795247039 7.199047626099859 0 0 0
1815 2 -1.098 10.421620891489063 4.0606894452889355 10.293000955248836 0 0 0
2415 2 -1.098 10.35903755850931 4.0068539434858845 13.235640096983328 0 0 0
1275 2 -1.098 10.346184948420909 8.537973016686934 7.254285084701045 0 0 0
1875 2 -1.098 10.342126610923886 8.541294326812796 10.15259630356645 0 0 0
2475 2 -1.098 10.264568770980352 8.525067556170788 13.295382871781095 0 0 0
1221 2 -1.098 14.83165729341869 4.0595615064869115 7.192077337354376 0 0 0
1821 2 -1.098 14.853281383041127 4.121114897300386 10.265659005096966 0 0 0
2421 2 -1.098 14.861059164928683 4.006572858232817 13.147920406222669 0 0 0
1281 2 -1.098 14.86851537641559 8.46946304919584 7.215291600232038 0 0 0
1881 2 -1.098 14.903532721321355 8.49660690406204 10.19212637730853 0 0 0
2481 2 -1.098 14.797083465126233 8.528167877633635 13.231325340468967 0 0 0
1210 2 -1.098 8.722931449363191 1.3815405665985283 7.244639401419876 0 0 0
1810 2 -1.098 8.649428635098184 1.3507344886906947 10.231168406215188 0 0 0
2410 2 -1.098 8.705744155387906 1.4400892104285177 13.266918550464439 0 0 0
1270 2 -1.098 8.656895751715965 5.811452938684071 7.231928844108885 0 0 0
1870 2 -1.098 8.706705246067582 5.9075473657691076 10.262208553813442 0 0 0
2470 2 -1.098 8.597991538877885 5.839544548914616 13.268507759426733 0 0 0
1216 2 -1.098 13.128643117776896 1.3522755192300546 7.276085944949885 0 0 0
1816 2 -1.098 13.171034925985037 1.334558990689593 10.342330966766362 0 0 0
2416 2 -1.098 13.19247261686617 1.2888582073179085 13.167706616519041 0 0 0
1276 2 -1.098 13.08669866639381 5.851910977454374 7.251394099466345 0 0 0
1876 2 -1.098 13.034166376743872 5.874798574066012 10.20932897540483 0 0 0
2476 2 -1.098 13.169789032532579 5.900751010970606 13.28578711643867 0 0 0
1213 1 2.196 11.667737010477033 2.6811799686130025 7.247686469602308 0 0 0
1813 1 2.196 11.84186436950736 2.7098841112621526 10.297586073802215 0 0 0
2413 1 2.196 11.771564272535091 2.6756250701157964 13.252892368633178 0 0 0
1273 1 2.196 11.754770262094913 7.195541958747453 7.228008170074867 0 0 0
1873 1 2.196 11.672193205695953 7.202120256548016 10.287414095574013 0 0 0
2473 1 2.196 11.680575267172372 7.097755913180555 13.291767751311655 0 0 0
1812 2 -1.098 8.171456175458435 3.5827690602735562 8.751780368566212 0 0 0
2412 2 -1.098 8.044680412024563 3.639148400873318 11.734746816688453 0 0 0
1872 2 -1.098 8.019213806078094 8.194060372733926 8.709956671427213 0 0 0
2472 2 -1.098 8.213446064798992 8.131306330569704 11.674436345629084 0 0 0
1818 2 -1.098 12.614410273155514 3.602189909849468 8.7474546469063 0 0 0
2418 2 -1.098 12.687030554574758 3.5366713576230624 11.745368360601125 0 0 0
1878 2 -1.098 12.669744066942501 8.116439699012115 8.738790391138341 0 0 0
2478 2 -1.098 12.60870087233824 8.111109044859607 11.836145957620554 0 0 0
2540 1 2.196 13.946595791198837 9.441133453093295 11.715091926798673 0 0 0
1940 1 2.196 14.0305975051312 9.379997960728788 8.683593633803014 0 0 0
6722 1 2.196 0.5677592432831489 9.398223356665888 32.91730373469091 0 0 0
3062 1 2.196 0.5088149923352816 4.938454404562595 14.715088939692212 0 0 0
2546 1 2.196 18.499766706439786 9.335575322003406 11.731294265689536 0 0 0
6089 2 -1.098 19.823619776580813 6.342389921505581 29.719164999483805 0 0 0
6629 2 -1.098 19.889216661077235 1.6988850991382551 32.785381275500185 0 0 0
1886 1 2.196 18.63006517417538 5.025939985082023 8.686566040051328 0 0 0
2486 1 2.196 18.47472620414575 4.919686869724929 11.696139419850562 0 0 0
1829 2 -1.098 19.89523473446559 1.7652436942641072 8.531486712771935 0 0 0
2429 2 -1.098 19.88675142068261 1.7909308366110512 11.59851859253377 0 0 0
1889 2 -1.098 19.875128941581526 6.4281207586778155 8.695998465110058 0 0 0
2489 2 -1.098 19.904262870815842 6.214138558125353 11.707713420027753 0 0 0
1227 2 -1.098 19.417459913754083 4.096010640917641 7.244210243182151 0 0 0
1827 2 -1.098 19.3834379078471 3.975367157153125 10.17536622142391 0 0 0
2427 2 -1.098 19.359659923687595 4.044559993177841 13.159820942966075 0 0 0
1287 2 -1.098 19.40773452344524 8.510579564122029 7.163921931794204 0 0 0
1887 2 -1.098 19.326451912826684 8.449066050283003 10.19987717510092 0 0 0
2487 2 -1.098 19.401208378898158 8.49260889275671 13.16302893770197 0 0 0
1222 2 -1.098 17.596868629208558 1.3784306165348172 7.124931754501513 0 0 0
1822 2 -1.098 17.645682017279036 1.3140871769708218 10.07766738705738 0 0 0
2422 2 -1.098 17.720483488120884 1.3998095706686242 13.110490334001938 0 0 0
1282 2 -1.098 17.698897070632487 5.889017686626363 7.215486777281942 0 0 0
1882 2 -1.098 17.755137306757263 5.831596111373799 10.272198911023574 0 0 0
2482 2 -1.098 17.58439744459805 5.823681593342269 13.211999848978936 0 0 0
1228 2 -1.098 22.12924717531022 1.3336140163702852 7.148778243183522 0 0 0
1828 2 -1.098 22.106925640295316 1.3137084035290674 10.150521625016145 0 0 0
2428 2 -1.098 22.002079602006557 1.2689955275204405 13.123050881493246 0 0 0
1288 2 -1.098 22.054507126820507 5.783917583481357 7.152459856682002 0 0 0
1888 2 -1.098 22.065372682342762 5.804117698790274 10.213684432853183 0 0 0
2488 2 -1.098 22.081424846294343 5.747252134507841 13.232424429078167 0 0 0
1219 1 2.196 16.285551161335135 2.7223928912928694 7.172148986170016 0 0 0
1819 1 2.196 16.297369799157234 2.7868403436843545 10.124745631000833 0 0 0
2419 1 2.196 16.28637437157272 2.67737644694565 13.179095607957597 0 0 0
1279 1 2.196 16.231633539025925 7.201748029334935 7.180603890033019 0 0 0
1879 1 2.196 16.331079103217718 7.1131533232674755 10.202282469620865 0 0 0
2479 1 2.196 16.22572195085611 7.109738402803068 13.206502666556926 0 0 0
1225 1 2.196 20.702095842623745 2.6588932170288064 7.11059556229603 0 0 0
1825 1 2.196 20.71309870684394 2.7047912963336658 10.058691485616043 0 0 0
2425 1 2.196 20.683708157783908 2.604593874491147 13.138605714779029 0 0 0
1285 1 2.196 20.735503303565775 7.198501869449409 7.181702558273037 0 0 0
1885 1 2.196 20.686847049299256 7.188142634177216 10.185313127870716 0 0 0
2485 1 2.196 20.760530921325987 7.161093976213007 13.223159911893752 0 0 0
1824 2 -1.098 17.18140384647681 3.699593137447869 8.689209966501195 0 0 0
2424 2 -1.098 17.00619235990951 3.655140362581951 11.701074557376726 0 0 0
1884 2 -1.098 17.025724567583172 8.097425304614486 8.698113302604423 0 0 0
2484 2 -1.098 17.116320062344577 8.057935039634952 11.708185706416518 0 0 0
1830 2 -1.098 21.632032714505538 3.58361893783181 8.587401088770369 0 0 0
2430 2 -1.098 21.668658162199275 3.539652681267203 11.633583290835594 0 0 0
1890 2 -1.098 21.725290529139475 8.041881172078275 8.709044283846653 0 0 0
2490 2 -1.098 21.667648966961526 8.020978778219433 11.672921295690124 0 0 0
6022 2 -1.098 17.5462330673364 1.351158531729311 31.217935786911156 0 0 0
3662 1 2.196 0.4724301275043692 4.901758905227769 17.762342090182287 0 0 0
4262 1 2.196 0.4726066303837861 4.953685690714313 20.67919445904967 0 0 0
6029 2 -1.098 19.84317729448845 1.7779876289131276 29.69950354493429 0 0 0
6686 1 2.196 18.54210296898305 5.013530482472496 32.841061792183034 0 0 0
3002 1 2.196 0.5950205171170825 0.5198166797470349 14.766297559292253 0 0 0
4202 1 2.196 0.4686730935597621 0.4838769886584814 20.806487070458502 0 0 0
3068 1 2.196 4.971723063819713 5.0099211123661025 14.813435931939031 0 0 0
3668 1 2.196 5.017128622457658 5.047453281919202 17.79135275439386 0 0 0
4268 1 2.196 4.916122311337027 4.950091184780339 20.81019220822081 0 0 0
3005 2 -1.098 1.8215728913037388 1.9221803242999933 14.705438829395241 0 0 0
3605 2 -1.098 1.9727261036818542 1.8590916390721557 17.766754946300082 0 0 0
4205 2 -1.098 1.8009983583813451 1.8159740502043145 20.662480436229693 0 0 0
3065 2 -1.098 1.8389390167421893 6.276431862179315 14.801547177614768 0 0 0
3665 2 -1.098 1.761335536045663 6.418873799763736 17.765574446251044 0 0 0
4265 2 -1.098 1.835795879345147 6.385427150411147 20.84029104590346 0 0 0
3011 2 -1.098 6.276192861898627 1.8320994379844793 14.701419419928921 0 0 0
3611 2 -1.098 6.338846862350412 1.8689231449406154 17.739515461240842 0 0 0
4211 2 -1.098 6.2587229172846595 1.881730214146164 20.795469980991797 0 0 0
3071 2 -1.098 6.375904829108828 6.346697903112512 14.706355196654824 0 0 0
3671 2 -1.098 6.346155423129677 6.339122363036002 17.733697937912687 0 0 0
4271 2 -1.098 6.3595939235065355 6.334253375403127 20.843106407171195 0 0 0
3003 2 -1.098 1.322195596542371 3.995143263419243 16.24673677233473 0 0 0
3603 2 -1.098 1.3880824762999546 4.075992785046356 19.238496529885158 0 0 0
3063 2 -1.098 1.319915878990811 8.649473787231765 16.24323835828193 0 0 0
3663 2 -1.098 1.3369665352177726 8.599269717314957 19.267660870371706 0 0 0
3009 2 -1.098 5.936799500814235 4.160557431588614 16.20468317579599 0 0 0
3609 2 -1.098 5.940299745326864 4.203098301781826 19.272275759581497 0 0 0
3069 2 -1.098 5.8651512157177015 8.661117012728967 16.420278715904256 0 0 0
3669 2 -1.098 5.8842611720209925 8.637844726142319 19.34487389018534 0 0 0
3004 2 -1.098 4.214520555378286 1.409562394716902 16.232445082537616 0 0 0
3604 2 -1.098 4.216423444790931 1.471605182904489 19.235041818507845 0 0 0
3064 2 -1.098 4.061318011733303 5.789498967422549 16.280047234329405 0 0 0
3664 2 -1.098 4.008322525246523 5.8890199041507545 19.20474208023713 0 0 0
3001 1 2.196 2.7943041792262804 2.7588493799149476 16.22138984298993 0 0 0
3601 1 2.196 2.7693256803722766 2.7460247283016064 19.26540069786678 0 0 0
3061 1 2.196 2.7359469487609207 7.237395438511427 16.301527997096642 0 0 0
3661 1 2.196 2.6794450050340117 7.221731660823742 19.25431718241473 0 0 0
3007 1 2.196 7.225946300966091 2.681929171094736 16.205067234404613 0 0 0
3607 1 2.196 7.217869517869223 2.756961439414219 19.29296835597192 0 0 0
3067 1 2.196 7.252490084167529 7.151975224058599 16.26453615286465 0 0 0
3667 1 2.196 7.21532941584351 7.277311446276072 19.33653623900454 0 0 0
3006 2 -1.098 3.661850309681281 3.6285511734686766 14.746212425103629 0 0 0
3606 2 -1.098 3.688268437782357 3.656223736423122 17.822099144958642 0 0 0
4206 2 -1.098 3.572368102850011 3.6347255791350066 20.78142866065725 0 0 0
3066 2 -1.098 3.64673873944267 8.111625903704523 14.8179057371537 0 0 0
3666 2 -1.098 3.5228962353178486 8.202758430121595 17.765594912772414 0 0 0
4266 2 -1.098 3.6560479921798934 8.105212071381818 20.750112666980108 0 0 0
3008 1 2.196 4.984439558274246 0.4552586203264567 14.755348836010379 0 0 0
3608 1 2.196 4.948623153908623 0.4862324266559689 17.770409181031898 0 0 0
4208 1 2.196 4.970483029474911 0.4997784002259349 20.767112120897213 0 0 0
6086 1 2.196 18.41286903447624 5.031838225008507 29.846705222420685 0 0 0
3074 1 2.196 9.449812275857854 4.899609816176423 14.789234979399762 0 0 0
3674 1 2.196 9.483889438273277 4.9846795480430055 17.849582643311226 0 0 0
4274 1 2.196 9.462222989739693 5.024843558392501 20.848507885529617 0 0 0
6026 1 2.196 18.374898393964262 0.46047218995275474 29.75031742087935 0 0 0
3620 1 2.196 13.95676537977361 0.47102816114065127 17.775135085766514 0 0 0
6082 2 -1.098 17.698834807952483 5.910592090539776 31.265564193624922 0 0 0
3080 1 2.196 13.952791452876431 5.008600215414566 14.759932427429426 0 0 0
3680 1 2.196 14.047087893760029 4.92059698293082 17.727036340511354 0 0 0
4280 1 2.196 13.927435489407323 4.945522475134468 20.760182276897748 0 0 0
3017 2 -1.098 10.87685776164303 1.8207500035808493 14.766201943757682 0 0 0
3617 2 -1.098 10.798300544555005 1.8378935639776004 17.758057882704694 0 0 0
4217 2 -1.098 10.756120099990829 1.870751143635883 20.722663075487173 0 0 0
3077 2 -1.098 10.880096357457742 6.265869211653904 14.789130618814564 0 0 0
3677 2 -1.098 10.898554074175753 6.2951333004562215 17.815883660279173 0 0 0
4277 2 -1.098 10.825472303663796 6.39196884555983 20.76897273095983 0 0 0
3023 2 -1.098 15.428629629346396 1.6782405240200422 14.737344715902276 0 0 0
3623 2 -1.098 15.337932292370082 1.834559335452719 17.776807105063153 0 0 0
4223 2 -1.098 15.252865023876465 1.8231282530535946 20.7399023630208 0 0 0
3083 2 -1.098 15.384301338699334 6.259133769318185 14.67990981318987 0 0 0
3683 2 -1.098 15.397162093879693 6.280916493345066 17.663052903560917 0 0 0
4283 2 -1.098 15.340319246347343 6.3059503614941725 20.786567076361205 0 0 0
3015 2 -1.098 10.4906018691984 4.098210028099398 16.297925936549518 0 0 0
3615 2 -1.098 10.361858198603409 4.075254509204082 19.370150154705165 0 0 0
3075 2 -1.098 10.215099575162993 8.542718536306895 16.18437077293481 0 0 0
3675 2 -1.098 10.438273401612442 8.700941237961084 19.30054537274456 0 0 0
3021 2 -1.098 14.788908854649115 3.995975500643213 16.15169931061559 0 0 0
3621 2 -1.098 14.748710198373006 4.013194320651361 19.219272620435326 0 0 0
3081 2 -1.098 14.866862358703843 8.51162907432524 16.236766499779925 0 0 0
3681 2 -1.098 14.77507426100319 8.449342648488244 19.199855251360507 0 0 0
3010 2 -1.098 8.557037763212476 1.3425129451032691 16.267834275140544 0 0 0
3610 2 -1.098 8.545160919173746 1.3542958884994465 19.26148261991834 0 0 0
3070 2 -1.098 8.679575408043625 5.788257477162158 16.31769959461363 0 0 0
3670 2 -1.098 8.581860471172659 5.874392567686042 19.31988076817747 0 0 0
3016 2 -1.098 13.20679002931212 1.4311622512830144 16.167958820606337 0 0 0
3616 2 -1.098 12.978961641328372 1.3177030774070155 19.280745769270226 0 0 0
3076 2 -1.098 13.12527511973392 5.871067123532176 16.21153853180707 0 0 0
3676 2 -1.098 13.10802624667854 5.913617880686433 19.307591953233327 0 0 0
3013 1 2.196 11.759405030792172 2.6509527842945926 16.293552017944503 0 0 0
3613 1 2.196 11.696451747116937 2.7587919936049143 19.127434025112528 0 0 0
3073 1 2.196 11.72680043394612 7.185555549557086 16.138361320786494 0 0 0
3673 1 2.196 11.794444893622213 7.2707108703552565 19.22684309255163 0 0 0
3012 2 -1.098 8.119168855532502 3.4950340372592725 14.710106603880963 0 0 0
3612 2 -1.098 8.091372981197269 3.6062740020293806 17.72875260437059 0 0 0
4212 2 -1.098 8.077766123514293 3.664038809531947 20.823232475813768 0 0 0
3072 2 -1.098 8.041069775425814 8.102687110494886 14.753043291880546 0 0 0
3672 2 -1.098 8.172977166515874 8.062980104947012 17.801670298975033 0 0 0
4272 2 -1.098 8.08827991770469 8.145504917966463 20.854778026334543 0 0 0
3018 2 -1.098 12.628291857219967 3.5726415472462385 14.715379227100923 0 0 0
3618 2 -1.098 12.649697796380288 3.5661354250267236 17.742321200137642 0 0 0
4218 2 -1.098 12.545889530635268 3.5597711570622828 20.798228075869723 0 0 0
3078 2 -1.098 12.619221157538766 8.018886207722932 14.714758848056963 0 0 0
3678 2 -1.098 12.530276091055573 8.095401886663748 17.682906317462386 0 0 0
4278 2 -1.098 12.66501942770559 8.084675281002266 20.774740328636614 0 0 0
3734 1 2.196 9.443749376378213 9.421307866162932 17.754667180040986 0 0 0
3014 1 2.196 9.43079958240381 0.4613971398736291 14.778639180357484 0 0 0
3092 1 2.196 22.95600923488319 4.88450532597287 14.713805068992533 0 0 0
6687 2 -1.098 19.319866514457928 8.512334978857258 34.38542222974883 0 0 0