# LAMMPS data file for primitive cell of rutile TiO2. 

6 atoms
2 atom types

0.0 4.593 xlo xhi
0.0 4.593 ylo yhi
0.0 2.959 zlo zhi

Masses

1 47.867
2 15.999

Atoms

1 1  2.196 2.29650000 2.29650000 1.47950000
2 1  2.196 0.00000000 0.00000000 0.00000000        
3 2 -1.098 0.89719667 3.69580333 1.47950000    
4 2 -1.098 3.69580333 0.89719667 1.47950000    
5 2 -1.098 1.39930333 1.39930333 0.00000000        
6 2 -1.098 3.19369667 3.19369667 0.00000000        

